;;
;; Generated by CHARMM-GUI FF-Converter
;;
;; Correspondance:
;; jul316@lehigh.edu or wonpil@lehigh.edu
;;
;; The main GROMACS topology file
;;

; Include forcefield parameters
#include "force_field_stuff/forcefield.itp"
#include "force_field_stuff/HFB.itp"

[ system ]
; Name
Title in water

[ molecules ]
; Compound	#mols
HFB   	           2
