;;
;; Generated by CHARMM-GUI FF-Converter
;;
;; Correspondance:
;; jul316@lehigh.edu or wonpil@lehigh.edu
;;
;; GROMACS topology file for HFB
;;


[ moleculetype ]
; name	nrexcl
HFB	     3

[ atoms ]
; nr	type	resnr	residu	atom	cgnr	charge	mass
     1       FGR1      1      HFB     F1      1    -0.115000    18.9980   ; qtot -0.115
     2     CG2R66      1      HFB     C1      2     0.115000    12.0110   ; qtot  0.000
     3     CG2R66      1      HFB     C2      3     0.115000    12.0110   ; qtot  0.115
     4       FGR1      1      HFB     F2      4    -0.115000    18.9980   ; qtot  0.000
     5     CG2R66      1      HFB     C3      5     0.115000    12.0110   ; qtot  0.115
     6       FGR1      1      HFB     F3      6    -0.115000    18.9980   ; qtot  0.000
     7     CG2R66      1      HFB     C4      7     0.115000    12.0110   ; qtot  0.115
     8       FGR1      1      HFB     F4      8    -0.115000    18.9980   ; qtot  0.000
     9     CG2R66      1      HFB     C5      9     0.115000    12.0110   ; qtot  0.115
    10       FGR1      1      HFB     F5     10    -0.115000    18.9980   ; qtot  0.000
    11     CG2R66      1      HFB     C6     11     0.115000    12.0110   ; qtot  0.115
    12       FGR1      1      HFB     F6     12    -0.115000    18.9980   ; qtot  0.000

[ bonds ]
; ai	aj	funct	b0	Kb
    1     2     1
    2     3     1
    2     5     1
    3     4     1
    3    11     1
    5     6     1
    5     7     1
    7     8     1
    7     9     1
   10     9     1
    9    11     1
   11    12     1

[ pairs ]
; ai	aj	funct	c6	c12 or
; ai	aj	funct	fudgeQQ	q1	q2	c6	c12
    1     4     1
    1     6     1
    1     7     1
    1    11     1
    2     8     1
    2     9     1
    2    12     1
    3     6     1
    3     7     1
    3    10     1
    4     5     1
    4     9     1
    4    12     1
    5    10     1
    5    11     1
    6     8     1
    6     9     1
    7    12     1
    8    10     1
    8    11     1
   10    12     1

[ angles ] 
; ai	aj	ak	funct	th0	cth	S0	Kub
    1     2     3     5
    1     2     5     5
    3     2     5     5
    2     3     4     5
    2     3    11     5
    4     3    11     5
    2     5     6     5
    2     5     7     5
    6     5     7     5
    5     7     8     5
    5     7     9     5
    8     7     9     5
    7     9    10     5
    7     9    11     5
   10     9    11     5
    3    11     9     5
    3    11    12     5
    9    11    12     5

[ dihedrals ]
; ai	aj	ak	al	funct	phi0	cp	mult
    1     2     3     4     9
    1     2     3    11     9
    5     2     3    11     9
    1     2     5     6     9
    1     2     5     7     9
    3     2     5     6     9
    3     2     5     7     9
    4     3     2     5     9
    2     3    11     9     9
    2     3    11    12     9
    4     3    11     9     9
    4     3    11    12     9
    2     5     7     8     9
    2     5     7     9     9
    6     5     7     8     9
    6     5     7     9     9
    5     7     9    10     9
    5     7     9    11     9
    8     7     9    10     9
    8     7     9    11     9
    7     9    11    12     9
   10     9    11    12     9
    3    11     9     7     9
    3    11     9    10     9

#ifdef POSRES
[ position_restraints ]
    1     1    POSRES_FC_BB    POSRES_FC_BB    POSRES_FC_BB   
    2     1    POSRES_FC_BB    POSRES_FC_BB    POSRES_FC_BB   
    3     1    POSRES_FC_BB    POSRES_FC_BB    POSRES_FC_BB   
    4     1    POSRES_FC_BB    POSRES_FC_BB    POSRES_FC_BB   
    5     1    POSRES_FC_BB    POSRES_FC_BB    POSRES_FC_BB   
    6     1    POSRES_FC_BB    POSRES_FC_BB    POSRES_FC_BB   
    7     1    POSRES_FC_BB    POSRES_FC_BB    POSRES_FC_BB   
    8     1    POSRES_FC_BB    POSRES_FC_BB    POSRES_FC_BB   
    9     1    POSRES_FC_BB    POSRES_FC_BB    POSRES_FC_BB   
   10     1    POSRES_FC_BB    POSRES_FC_BB    POSRES_FC_BB   
   11     1    POSRES_FC_BB    POSRES_FC_BB    POSRES_FC_BB   
   12     1    POSRES_FC_BB    POSRES_FC_BB    POSRES_FC_BB   
#endif
