;;
;; Generated by CHARMM-GUI (http://www.charmm-gui.org) v1.7
;;
;; psf2itp_mol.py
;;
;; Correspondance:
;; jul316@lehigh.edu or wonpil@lehigh.edu
;;
;; GROMACS topology file for FLUB
;;


[ moleculetype ]
; name	nrexcl
FLUB	     3

[ atoms ]
; nr	type	resnr	residu	atom	cgnr	charge	mass
     1     CG2R61      1     FLUB     C1      1     -0.100    12.0110   ; qtot -0.100
     2      HGR62      1     FLUB     H1      2      0.150     1.0080   ; qtot  0.050
     3     CG2R61      1     FLUB     C2      3     -0.115    12.0110   ; qtot -0.065
     4      HGR61      1     FLUB     H2      4      0.115     1.0080   ; qtot  0.050
     5     CG2R61      1     FLUB     C3      5     -0.115    12.0110   ; qtot -0.065
     6      HGR61      1     FLUB     H3      6      0.115     1.0080   ; qtot  0.050
     7     CG2R61      1     FLUB     C4      7     -0.115    12.0110   ; qtot -0.065
     8      HGR61      1     FLUB     H4      8      0.115     1.0080   ; qtot  0.050
     9     CG2R61      1     FLUB     C5      9     -0.100    12.0110   ; qtot -0.050
    10      HGR62      1     FLUB     H5     10      0.150     1.0080   ; qtot  0.100
    11     CG2R66      1     FLUB     C6     11      0.110    12.0110   ; qtot  0.210
    12       FGR1      1     FLUB     F6     12     -0.210    18.9980   ; qtot -0.000

[ bonds ]
; ai	aj	funct	b0	Kb
    1     2     1
    1     3     1
    1    11     1
    3     4     1
    3     5     1
    5     6     1
    5     7     1
    7     8     1
    7     9     1
    9    10     1
    9    11     1
   11    12     1

[ pairs ]
; ai	aj	funct	c6	c12
    1     6     1 
    1     7     1 
    1    10     1 
    2     4     1 
    2     5     1 
    2     9     1 
    2    12     1 
    3     8     1 
    3     9     1 
    3    12     1 
    4     6     1 
    4     7     1 
    4    11     1 
    5    10     1 
    5    11     1 
    6     8     1 
    6     9     1 
    7    12     1 
    8    10     1 
    8    11     1 
   10    12     1 

[ angles ] 
; ai	aj	ak	funct	th0	cth	S0	Kub
    2     1     3     5
    2     1    11     5
    3     1    11     5
    1     3     4     5
    1     3     5     5
    4     3     5     5
    3     5     6     5
    3     5     7     5
    6     5     7     5
    5     7     8     5
    5     7     9     5
    8     7     9     5
    7     9    10     5
    7     9    11     5
   10     9    11     5
    1    11     9     5
    1    11    12     5
    9    11    12     5

[ dihedrals ]
; ai	aj	ak	al	funct	phi0	cp	mult
    2     1     3     4     9
    2     1     3     5     9
    2     1    11     9     9
    2     1    11    12     9
    3     1    11     9     9
    3     1    11    12     9
    4     3     1    11     9
    5     3     1    11     9
    1     3     5     6     9
    1     3     5     7     9
    4     3     5     6     9
    4     3     5     7     9
    3     5     7     8     9
    3     5     7     9     9
    6     5     7     8     9
    6     5     7     9     9
    5     7     9    10     9
    5     7     9    11     9
    8     7     9    10     9
    8     7     9    11     9
    7     9    11    12     9
   10     9    11    12     9
    1    11     9     7     9
    1    11     9    10     9
