;;
;; Generated by CHARMM-GUI (http://www.charmm-gui.org) v1.7
;;
;; psf2itp_mol.py
;;
;; Correspondance:
;; jul316@lehigh.edu or wonpil@lehigh.edu
;;
;; CHARMM36 FF in GROMACS format
;;


[ defaults ]
; nbfunc	comb-rule	gen-pairs	fudgeLJ	fudgeQQ
1	2	yes	1.0	1.0

[ atomtypes ]
; name	at.num	mass	charge	ptype	sigma	epsilon	;	sigma_14	epsilon_14
      CA     6    12.0110     -0.115     A    3.55005321205e-01    2.928800e-01 
      HP     1     1.0080      0.115     A    2.42003727796e-01    1.255200e-01 ;   2.42003727796e-01    1.255200e-01 

[ bondtypes ]
; i	j	func	b0	Kb
     CA      CA     1  1.375000e-01  2.552240e+05
     HP      CA     1  1.080000e-01  2.845120e+05

[ pairtypes ]
; i	j	func	sigma1-4	epsilon1-4
     CA      HP     1  2.98504524500e-01  1.91734967077e-01 
     HP      HP     1  2.42003727796e-01  1.25520000000e-01 

[ angletypes ]
; i	j	k	func	th0	cth	S0	Kub
     CA      CA      CA     5  1.2000000e+02  3.3472000e+02  2.4162000e-01  2.9288000e+04
     HP      CA      CA     5  1.2000000e+02  2.5104000e+02  2.1525000e-01  1.8409600e+04

[ dihedraltypes ]
; i	j	k	l	func	phi0	cp	mult
     CA      CA      CA      CA     9  1.800000e+02  1.297040e+01      2
     HP      CA      CA      CA     9  1.800000e+02  1.757280e+01      2
     HP      CA      CA      HP     9  1.800000e+02  1.004160e+01      2
