;;
;; Generated by CHARMM-GUI (http://www.charmm-gui.org) v1.7
;;
;; psf2itp_mol.py
;;
;; Correspondance:
;; jul316@lehigh.edu or wonpil@lehigh.edu
;;
;; The main GROMACS topology file
;;

; Include forcefield parameters
#include "force_field_stuff/charmm36.itp"
#include "force_field_stuff/BENZ.itp"


[ system ]
; Name
Title in water

[ molecules ]
; Compound	#mols
BENZ               2
