;;
;; Generated by CHARMM-GUI (http://www.charmm-gui.org) v1.7
;;
;; psf2itp_mol.py
;;
;; Correspondance:
;; jul316@lehigh.edu or wonpil@lehigh.edu
;;
;; GROMACS topology file for MXYL
;;


[ moleculetype ]
; name	nrexcl
xylene	     3

[ atoms ]
; nr	type	resnr	residu	atom	cgnr	charge	mass
     1      Cbenz      1     MXYL     CG      1     -0.115    12.0110   ; qtot -0.115
     2      HGR61      1     MXYL     HG      2      0.115     1.0080   ; qtot  0.000
     3      Cbenz      1     MXYL    CD1      3     -0.115    12.0110   ; qtot -0.115
     4      HGR61      1     MXYL    HD1      4      0.115     1.0080   ; qtot  0.000
     5      Cbenz      1     MXYL    CD2      5      0.000    12.0110   ; qtot  0.000
     6      Cbenz      1     MXYL    CE1      6     -0.115    12.0110   ; qtot -0.115
     7      HGR61      1     MXYL    HE1      7      0.115     1.0080   ; qtot  0.000
     8      Cbenz      1     MXYL    CE2      8     -0.115    12.0110   ; qtot -0.115
     9      HGR61      1     MXYL    HE2      9      0.115     1.0080   ; qtot  0.000
    10      Cbenz      1     MXYL     CZ     10      0.000    12.0110   ; qtot  0.000
    11      CG331      1     MXYL     C1     11     -0.270    12.0110   ; qtot -0.270
    12       HGA3      1     MXYL    H11     12      0.090     1.0080   ; qtot -0.180
    13       HGA3      1     MXYL    H12     13      0.090     1.0080   ; qtot -0.090
    14       HGA3      1     MXYL    H13     14      0.090     1.0080   ; qtot -0.000
    15      CG331      1     MXYL     C2     15     -0.270    12.0110   ; qtot -0.270
    16       HGA3      1     MXYL    H21     16      0.090     1.0080   ; qtot -0.180
    17       HGA3      1     MXYL    H22     17      0.090     1.0080   ; qtot -0.090
    18       HGA3      1     MXYL    H23     18      0.090     1.0080   ; qtot -0.000
 
[ position_restraints ]
; atom  type  direction (5=z) radius (nm) force constnt
  1        2     5    2    1000
  2        2     5    2    1000
  3        2     5    2    1000
  4        2     5    2    1000
  5        2     5    2    1000
  6        2     5    2    1000
  7        2     5    2    1000
  8        2     5    2    1000
  9        2     5    2    1000
  10       2     5    2    1000
  11       2     5    2    1000
  12       2     5    2    1000
  13       2     5    2    1000
  14       2     5    2    1000
  15       2     5    2    1000
  16       2     5    2    1000
  17       2     5    2    1000
  18       2     5    2    1000

[ bonds ]
; ai	aj	funct	b0	Kb
    1     2     1
    1     3     1
    1     5     1
    3     4     1
    3     6     1
    5     8     1
    5    15     1
    6     7     1
    6    10     1
    8     9     1
    8    10     1
   10    11     1
   11    12     1
   11    13     1
   11    14     1
   15    16     1
   15    17     1
   15    18     1

[ pairs ]
; ai	aj	funct	c6	c12
    1     7     1 
    1     9     1 
    1    10     1 
    1    16     1 
    1    17     1 
    1    18     1 
    2     4     1 
    2     6     1 
    2     8     1 
    2    15     1 
    3     8     1 
    3    11     1 
    3    15     1 
    4     5     1 
    4     7     1 
    4    10     1 
    5     6     1 
    5    11     1 
    6     9     1 
    6    12     1 
    6    13     1 
    6    14     1 
    7     8     1 
    7    11     1 
    8    12     1 
    8    13     1 
    8    14     1 
    8    16     1 
    8    17     1 
    8    18     1 
    9    11     1 
    9    15     1 
   10    15     1 

[ angles ] 
; ai	aj	ak	funct	th0	cth	S0	Kub
    2     1     3     5
    2     1     5     5
    3     1     5     5
    1     3     4     5
    1     3     6     5
    4     3     6     5
    1     5     8     5
    1     5    15     5
    8     5    15     5
    3     6     7     5
    3     6    10     5
    7     6    10     5
    5     8     9     5
    5     8    10     5
    9     8    10     5
    6    10     8     5
    6    10    11     5
    8    10    11     5
   10    11    12     5
   10    11    13     5
   10    11    14     5
   12    11    13     5
   12    11    14     5
   13    11    14     5
    5    15    16     5
    5    15    17     5
    5    15    18     5
   16    15    17     5
   16    15    18     5
   17    15    18     5

[ dihedrals ]
; ai	aj	ak	al	funct	phi0	cp	mult
    2     1     3     4     9
    2     1     3     6     9
    5     1     3     6     9
    2     1     5     8     9
    2     1     5    15     9
    3     1     5     8     9
    3     1     5    15     9
    4     3     1     5     9
    1     3     6     7     9
    1     3     6    10     9
    4     3     6     7     9
    4     3     6    10     9
    1     5     8     9     9
    1     5     8    10     9
    1     5    15    16     9
    1     5    15    17     9
    1     5    15    18     9
    8     5    15    16     9
    8     5    15    17     9
    8     5    15    18     9
    3     6    10     8     9
    3     6    10    11     9
    7     6    10     8     9
    7     6    10    11     9
    9     8     5    15     9
   10     8     5    15     9
    5     8    10     6     9
    5     8    10    11     9
    9     8    10    11     9
    6    10     8     9     9
    6    10    11    12     9
    6    10    11    13     9
    6    10    11    14     9
    8    10    11    12     9
    8    10    11    13     9
    8    10    11    14     9
