;;
;; Generated by CHARMM-GUI FF-Converter
;;
;; Correspondance:
;; jul316@lehigh.edu or wonpil@lehigh.edu
;;
;; GROMACS topology file for 60C
;;


[ moleculetype ]
; name	nrexcl
60C	     3

[ atoms ]
; nr	type	resnr	residu	atom	cgnr	charge	mass
     1     CG2R61      1      60C     C1      1     0.000000    12.0110   ; qtot  0.000
     2     CG2R61      1      60C     C2      2     0.000000    12.0110   ; qtot  0.000
     3     CG2R61      1      60C     C3      3     0.000000    12.0110   ; qtot  0.000
     4     CG2R61      1      60C     C4      4     0.000000    12.0110   ; qtot  0.000
     5     CG2R61      1      60C     C5      5     0.000000    12.0110   ; qtot  0.000
     6     CG2R61      1      60C     C6      6     0.000000    12.0110   ; qtot  0.000
     7     CG2R61      1      60C     C7      7     0.000000    12.0110   ; qtot  0.000
     8     CG2R61      1      60C     C8      8     0.000000    12.0110   ; qtot  0.000
     9     CG2R61      1      60C     C9      9     0.000000    12.0110   ; qtot  0.000
    10     CG2R61      1      60C    C10     10     0.000000    12.0110   ; qtot  0.000
    11     CG2R61      1      60C    C11     11     0.000000    12.0110   ; qtot  0.000
    12     CG2R61      1      60C    C12     12     0.000000    12.0110   ; qtot  0.000
    13     CG2R61      1      60C    C13     13     0.000000    12.0110   ; qtot  0.000
    14     CG2R61      1      60C    C14     14     0.000000    12.0110   ; qtot  0.000
    15     CG2R61      1      60C    C15     15     0.000000    12.0110   ; qtot  0.000
    16     CG2R61      1      60C    C16     16     0.000000    12.0110   ; qtot  0.000
    17     CG2R61      1      60C    C17     17     0.000000    12.0110   ; qtot  0.000
    18     CG2R61      1      60C    C18     18     0.000000    12.0110   ; qtot  0.000
    19     CG2R61      1      60C    C19     19     0.000000    12.0110   ; qtot  0.000
    20     CG2R61      1      60C    C20     20     0.000000    12.0110   ; qtot  0.000
    21     CG2R61      1      60C    C21     21     0.000000    12.0110   ; qtot  0.000
    22     CG2R61      1      60C    C22     22     0.000000    12.0110   ; qtot  0.000
    23     CG2R61      1      60C    C23     23     0.000000    12.0110   ; qtot  0.000
    24     CG2R61      1      60C    C24     24     0.000000    12.0110   ; qtot  0.000
    25     CG2R61      1      60C    C25     25     0.000000    12.0110   ; qtot  0.000
    26     CG2R61      1      60C    C26     26     0.000000    12.0110   ; qtot  0.000
    27     CG2R61      1      60C    C27     27     0.000000    12.0110   ; qtot  0.000
    28     CG2R61      1      60C    C28     28     0.000000    12.0110   ; qtot  0.000
    29     CG2R61      1      60C    C29     29     0.000000    12.0110   ; qtot  0.000
    30     CG2R61      1      60C    C30     30     0.000000    12.0110   ; qtot  0.000
    31     CG2R61      1      60C    C31     31     0.000000    12.0110   ; qtot  0.000
    32     CG2R61      1      60C    C32     32     0.000000    12.0110   ; qtot  0.000
    33     CG2R61      1      60C    C33     33     0.000000    12.0110   ; qtot  0.000
    34     CG2R61      1      60C    C34     34     0.000000    12.0110   ; qtot  0.000
    35     CG2R61      1      60C    C35     35     0.000000    12.0110   ; qtot  0.000
    36     CG2R61      1      60C    C36     36     0.000000    12.0110   ; qtot  0.000
    37     CG2R61      1      60C    C37     37     0.000000    12.0110   ; qtot  0.000
    38     CG2R61      1      60C    C38     38     0.000000    12.0110   ; qtot  0.000
    39     CG2R61      1      60C    C39     39     0.000000    12.0110   ; qtot  0.000
    40     CG2R61      1      60C    C40     40     0.000000    12.0110   ; qtot  0.000
    41     CG2R61      1      60C    C41     41     0.000000    12.0110   ; qtot  0.000
    42     CG2R61      1      60C    C42     42     0.000000    12.0110   ; qtot  0.000
    43     CG2R61      1      60C    C43     43     0.000000    12.0110   ; qtot  0.000
    44     CG2R61      1      60C    C44     44     0.000000    12.0110   ; qtot  0.000
    45     CG2R61      1      60C    C45     45     0.000000    12.0110   ; qtot  0.000
    46     CG2R61      1      60C    C46     46     0.000000    12.0110   ; qtot  0.000
    47     CG2R61      1      60C    C47     47     0.000000    12.0110   ; qtot  0.000
    48     CG2R61      1      60C    C48     48     0.000000    12.0110   ; qtot  0.000
    49     CG2R61      1      60C    C49     49     0.000000    12.0110   ; qtot  0.000
    50     CG2R61      1      60C    C50     50     0.000000    12.0110   ; qtot  0.000
    51     CG2R61      1      60C    C51     51     0.000000    12.0110   ; qtot  0.000
    52     CG2R61      1      60C    C52     52     0.000000    12.0110   ; qtot  0.000
    53     CG2R61      1      60C    C53     53     0.000000    12.0110   ; qtot  0.000
    54     CG2R61      1      60C    C54     54     0.000000    12.0110   ; qtot  0.000
    55     CG2R61      1      60C    C55     55     0.000000    12.0110   ; qtot  0.000
    56     CG2R61      1      60C    C56     56     0.000000    12.0110   ; qtot  0.000
    57     CG2R61      1      60C    C57     57     0.000000    12.0110   ; qtot  0.000
    58     CG2R61      1      60C    C58     58     0.000000    12.0110   ; qtot  0.000
    59     CG2R61      1      60C    C59     59     0.000000    12.0110   ; qtot  0.000
    60     CG2R61      1      60C    C60     60     0.000000    12.0110   ; qtot  0.000

[ bonds ]
; ai	aj	funct	b0	Kb
    1     2     1
    1     7     1
    1    47     1
    2     3     1
    2     8     1
    3    11     1
    3    46     1
    4     5     1
    4    13     1
    4    47     1
    5     6     1
    5    16     1
    6     7     1
    6    19     1
    7    10     1
    8     9     1
    8    48     1
    9    10     1
    9    50     1
   10    18     1
   11    12     1
   11    15     1
   12    22     1
   12    48     1
   13    17     1
   13    44     1
   14    15     1
   14    20     1
   14    45     1
   15    23     1
   16    17     1
   16    25     1
   17    27     1
   18    19     1
   18    33     1
   19    24     1
   20    21     1
   20    29     1
   21    26     1
   21    44     1
   22    23     1
   22    31     1
   23    28     1
   24    25     1
   24    55     1
   25    34     1
   26    27     1
   26    41     1
   27    35     1
   28    29     1
   28    39     1
   29    40     1
   30    31     1
   30    37     1
   30    49     1
   31    38     1
   32    33     1
   32    36     1
   32    50     1
   33    57     1
   34    35     1
   34    54     1
   35    51     1
   36    37     1
   36    58     1
   37    43     1
   38    39     1
   38    43     1
   39    42     1
   40    41     1
   40    42     1
   41    51     1
   42    52     1
   43    59     1
   44    45     1
   45    46     1
   46    47     1
   48    49     1
   49    50     1
   51    53     1
   52    53     1
   52    59     1
   53    56     1
   54    55     1
   54    56     1
   55    57     1
   56    60     1
   57    58     1
   58    60     1
   59    60     1

[ pairs ]
; ai	aj	funct	c6	c12 or
; ai	aj	funct	fudgeQQ	q1	q2	c6	c12
    1     5     1
    1     9     1
    1    11     1
    1    13     1
    1    18     1
    1    19     1
    1    45     1
    1    48     1
    2     4     1
    2     6     1
    2    10     1
    2    12     1
    2    15     1
    2    45     1
    2    49     1
    2    50     1
    3     4     1
    3     7     1
    3     9     1
    3    14     1
    3    22     1
    3    23     1
    3    44     1
    3    48     1
    4     7     1
    4    19     1
    4    21     1
    4    25     1
    4    27     1
    4    45     1
    5    10     1
    5    18     1
    5    24     1
    5    27     1
    5    34     1
    5    44     1
    5    46     1
    6     9     1
    6    13     1
    6    17     1
    6    25     1
    6    33     1
    6    47     1
    6    55     1
    7     8     1
    7    16     1
    7    24     1
    7    33     1
    7    46     1
    7    50     1
    8    11     1
    8    18     1
    8    22     1
    8    30     1
    8    32     1
    8    46     1
    8    47     1
    9    12     1
    9    19     1
    9    30     1
    9    33     1
    9    36     1
   10    24     1
   10    32     1
   10    47     1
   10    48     1
   10    49     1
   10    57     1
   11    20     1
   11    28     1
   11    31     1
   11    45     1
   11    47     1
   11    49     1
   12    14     1
   12    28     1
   12    30     1
   12    38     1
   12    46     1
   12    50     1
   13    14     1
   13    20     1
   13    25     1
   13    26     1
   13    35     1
   13    46     1
   14    22     1
   14    26     1
   14    28     1
   14    40     1
   14    47     1
   15    21     1
   15    29     1
   15    31     1
   15    39     1
   15    44     1
   15    46     1
   15    48     1
   16    19     1
   16    26     1
   16    35     1
   16    44     1
   16    47     1
   16    54     1
   16    55     1
   17    21     1
   17    24     1
   17    34     1
   17    41     1
   17    45     1
   17    47     1
   17    51     1
   18    25     1
   18    36     1
   18    50     1
   18    55     1
   18    58     1
   19    32     1
   19    34     1
   19    54     1
   19    57     1
   20    23     1
   20    27     1
   20    39     1
   20    41     1
   20    42     1
   20    46     1
   21    28     1
   21    35     1
   21    40     1
   21    46     1
   21    51     1
   22    29     1
   22    37     1
   22    39     1
   22    43     1
   22    49     1
   23    30     1
   23    38     1
   23    40     1
   23    42     1
   23    45     1
   23    48     1
   24    33     1
   24    35     1
   24    56     1
   24    58     1
   25    27     1
   25    51     1
   25    56     1
   25    57     1
   26    29     1
   26    34     1
   26    42     1
   26    45     1
   26    53     1
   27    40     1
   27    44     1
   27    53     1
   27    54     1
   28    31     1
   28    41     1
   28    43     1
   28    52     1
   29    38     1
   29    44     1
   29    45     1
   29    51     1
   29    52     1
   30    32     1
   30    39     1
   30    58     1
   30    59     1
   31    36     1
   31    42     1
   31    48     1
   31    50     1
   31    59     1
   32    43     1
   32    48     1
   32    55     1
   32    60     1
   33    37     1
   33    49     1
   33    54     1
   33    60     1
   34    41     1
   34    53     1
   34    57     1
   34    60     1
   35    40     1
   35    52     1
   35    55     1
   35    56     1
   36    38     1
   36    49     1
   36    55     1
   36    56     1
   36    59     1
   37    39     1
   37    48     1
   37    50     1
   37    52     1
   37    57     1
   37    60     1
   38    40     1
   38    49     1
   38    52     1
   38    60     1
   39    41     1
   39    53     1
   39    59     1
   40    53     1
   40    59     1
   41    44     1
   41    52     1
   41    56     1
   42    43     1
   42    51     1
   42    56     1
   42    60     1
   43    49     1
   43    53     1
   43    56     1
   43    58     1
   44    47     1
   50    57     1
   50    58     1
   51    54     1
   51    59     1
   51    60     1
   52    54     1
   52    58     1
   53    55     1
   53    58     1
   54    58     1
   54    59     1
   55    60     1
   56    57     1
   57    59     1

[ angles ] 
; ai	aj	ak	funct	th0	cth	S0	Kub
    2     1     7     5
    2     1    47     5
    7     1    47     5
    1     2     3     5
    1     2     8     5
    3     2     8     5
    2     3    11     5
    2     3    46     5
   11     3    46     5
    5     4    13     5
    5     4    47     5
   13     4    47     5
    4     5     6     5
    4     5    16     5
    6     5    16     5
    5     6     7     5
    5     6    19     5
    7     6    19     5
    1     7     6     5
    1     7    10     5
    6     7    10     5
    2     8     9     5
    2     8    48     5
    9     8    48     5
    8     9    10     5
    8     9    50     5
   10     9    50     5
    7    10     9     5
    7    10    18     5
    9    10    18     5
    3    11    12     5
    3    11    15     5
   12    11    15     5
   11    12    22     5
   11    12    48     5
   22    12    48     5
    4    13    17     5
    4    13    44     5
   17    13    44     5
   15    14    20     5
   15    14    45     5
   20    14    45     5
   11    15    14     5
   11    15    23     5
   14    15    23     5
    5    16    17     5
    5    16    25     5
   17    16    25     5
   13    17    16     5
   13    17    27     5
   16    17    27     5
   10    18    19     5
   10    18    33     5
   19    18    33     5
    6    19    18     5
    6    19    24     5
   18    19    24     5
   14    20    21     5
   14    20    29     5
   21    20    29     5
   20    21    26     5
   20    21    44     5
   26    21    44     5
   12    22    23     5
   12    22    31     5
   23    22    31     5
   15    23    22     5
   15    23    28     5
   22    23    28     5
   19    24    25     5
   19    24    55     5
   25    24    55     5
   16    25    24     5
   16    25    34     5
   24    25    34     5
   21    26    27     5
   21    26    41     5
   27    26    41     5
   17    27    26     5
   17    27    35     5
   26    27    35     5
   23    28    29     5
   23    28    39     5
   29    28    39     5
   20    29    28     5
   20    29    40     5
   28    29    40     5
   31    30    37     5
   31    30    49     5
   37    30    49     5
   22    31    30     5
   22    31    38     5
   30    31    38     5
   33    32    36     5
   33    32    50     5
   36    32    50     5
   18    33    32     5
   18    33    57     5
   32    33    57     5
   25    34    35     5
   25    34    54     5
   35    34    54     5
   27    35    34     5
   27    35    51     5
   34    35    51     5
   32    36    37     5
   32    36    58     5
   37    36    58     5
   30    37    36     5
   30    37    43     5
   36    37    43     5
   31    38    39     5
   31    38    43     5
   39    38    43     5
   28    39    38     5
   28    39    42     5
   38    39    42     5
   29    40    41     5
   29    40    42     5
   41    40    42     5
   26    41    40     5
   26    41    51     5
   40    41    51     5
   39    42    40     5
   39    42    52     5
   40    42    52     5
   37    43    38     5
   37    43    59     5
   38    43    59     5
   13    44    21     5
   13    44    45     5
   21    44    45     5
   14    45    44     5
   14    45    46     5
   44    45    46     5
    3    46    45     5
    3    46    47     5
   45    46    47     5
    1    47     4     5
    1    47    46     5
    4    47    46     5
    8    48    12     5
    8    48    49     5
   12    48    49     5
   30    49    48     5
   30    49    50     5
   48    49    50     5
    9    50    32     5
    9    50    49     5
   32    50    49     5
   35    51    41     5
   35    51    53     5
   41    51    53     5
   42    52    53     5
   42    52    59     5
   53    52    59     5
   51    53    52     5
   51    53    56     5
   52    53    56     5
   34    54    55     5
   34    54    56     5
   55    54    56     5
   24    55    54     5
   24    55    57     5
   54    55    57     5
   53    56    54     5
   53    56    60     5
   54    56    60     5
   33    57    55     5
   33    57    58     5
   55    57    58     5
   36    58    57     5
   36    58    60     5
   57    58    60     5
   43    59    52     5
   43    59    60     5
   52    59    60     5
   56    60    58     5
   56    60    59     5
   58    60    59     5

[ dihedrals ]
; ai	aj	ak	al	funct	phi0	cp	mult
    7     1     2     8     9
    2     1     7     6     9
    2     1     7    10     9
    2     1    47     4     9
    2     1    47    46     9
    7     1    47    46     9
    3     2     1     7     9
    3     2     1    47     9
    8     2     1    47     9
    1     2     3    11     9
    1     2     3    46     9
    8     2     3    11     9
    8     2     3    46     9
    1     2     8     9     9
    1     2     8    48     9
    3     2     8     9     9
    3     2     8    48     9
    2     3    11    12     9
    2     3    11    15     9
    2     3    46    45     9
    2     3    46    47     9
   11     3    46    45     9
   11     3    46    47     9
   13     4     5    16     9
    5     4    13    17     9
    5     4    13    44     9
    5     4    47    46     9
   13     4    47    46     9
    6     5     4    13     9
    6     5     4    47     9
   16     5     4    47     9
    4     5     6     7     9
    4     5     6    19     9
   16     5     6    19     9
    4     5    16    17     9
    4     5    16    25     9
    6     5    16    17     9
    6     5    16    25     9
    7     6     5    16     9
    5     6     7    10     9
    5     6    19    18     9
    5     6    19    24     9
    7     6    19    18     9
    7     6    19    24     9
    6     7     1    47     9
   10     7     1    47     9
    1     7     6     5     9
    1     7     6    19     9
   10     7     6    19     9
    1     7    10     9     9
    1     7    10    18     9
    6     7    10     9     9
    6     7    10    18     9
    2     8     9    10     9
    2     8     9    50     9
   48     8     9    50     9
    2     8    48    12     9
    2     8    48    49     9
    9     8    48    12     9
    9     8    48    49     9
   10     9     8    48     9
    8     9    10    18     9
    8     9    50    32     9
    8     9    50    49     9
   10     9    50    32     9
   10     9    50    49     9
    7    10     9     8     9
    7    10     9    50     9
   18    10     9    50     9
    7    10    18    19     9
    7    10    18    33     9
    9    10    18    19     9
    9    10    18    33     9
   12    11     3    46     9
   15    11     3    46     9
    3    11    12    22     9
    3    11    12    48     9
   15    11    12    22     9
   15    11    12    48     9
    3    11    15    14     9
    3    11    15    23     9
   12    11    15    14     9
   12    11    15    23     9
   11    12    22    23     9
   11    12    22    31     9
   11    12    48    49     9
   22    12    48    49     9
   17    13     4    47     9
   44    13     4    47     9
    4    13    17    16     9
    4    13    17    27     9
    4    13    44    21     9
    4    13    44    45     9
   17    13    44    21     9
   17    13    44    45     9
   20    14    15    23     9
   15    14    20    21     9
   15    14    20    29     9
   15    14    45    44     9
   15    14    45    46     9
   20    14    45    44     9
   20    14    45    46     9
   11    15    14    20     9
   11    15    14    45     9
   23    15    14    45     9
   11    15    23    22     9
   11    15    23    28     9
   14    15    23    22     9
   14    15    23    28     9
    5    16    17    13     9
    5    16    17    27     9
   25    16    17    27     9
    5    16    25    24     9
    5    16    25    34     9
   17    16    25    24     9
   17    16    25    34     9
   16    17    13    44     9
   27    17    13    44     9
   13    17    16    25     9
   13    17    27    26     9
   13    17    27    35     9
   16    17    27    26     9
   16    17    27    35     9
   10    18    19    24     9
   10    18    33    32     9
   10    18    33    57     9
   19    18    33    32     9
   19    18    33    57     9
    6    19    18    10     9
    6    19    18    33     9
   24    19    18    33     9
    6    19    24    25     9
    6    19    24    55     9
   18    19    24    25     9
   18    19    24    55     9
   21    20    14    45     9
   29    20    14    45     9
   14    20    21    26     9
   14    20    21    44     9
   29    20    21    44     9
   14    20    29    28     9
   14    20    29    40     9
   21    20    29    28     9
   21    20    29    40     9
   26    21    20    29     9
   20    21    26    27     9
   20    21    26    41     9
   20    21    44    45     9
   26    21    44    45     9
   23    22    12    48     9
   31    22    12    48     9
   12    22    23    15     9
   12    22    23    28     9
   12    22    31    30     9
   12    22    31    38     9
   23    22    31    30     9
   23    22    31    38     9
   15    23    22    31     9
   28    23    22    31     9
   15    23    28    29     9
   15    23    28    39     9
   22    23    28    29     9
   22    23    28    39     9
   19    24    25    34     9
   19    24    55    54     9
   19    24    55    57     9
   25    24    55    54     9
   25    24    55    57     9
   16    25    24    19     9
   16    25    24    55     9
   34    25    24    55     9
   16    25    34    35     9
   16    25    34    54     9
   24    25    34    35     9
   24    25    34    54     9
   27    26    21    44     9
   41    26    21    44     9
   21    26    27    35     9
   21    26    41    40     9
   21    26    41    51     9
   27    26    41    40     9
   27    26    41    51     9
   17    27    26    21     9
   17    27    26    41     9
   35    27    26    41     9
   17    27    35    34     9
   17    27    35    51     9
   26    27    35    34     9
   26    27    35    51     9
   23    28    29    40     9
   39    28    29    40     9
   23    28    39    38     9
   23    28    39    42     9
   29    28    39    38     9
   29    28    39    42     9
   20    29    28    23     9
   20    29    28    39     9
   20    29    40    41     9
   20    29    40    42     9
   28    29    40    41     9
   28    29    40    42     9
   37    30    31    38     9
   31    30    37    36     9
   31    30    37    43     9
   31    30    49    48     9
   31    30    49    50     9
   37    30    49    48     9
   37    30    49    50     9
   22    31    30    37     9
   22    31    30    49     9
   38    31    30    49     9
   22    31    38    39     9
   22    31    38    43     9
   30    31    38    39     9
   30    31    38    43     9
   36    32    33    57     9
   50    32    33    57     9
   33    32    36    37     9
   33    32    36    58     9
   50    32    36    58     9
   33    32    50    49     9
   36    32    50    49     9
   18    33    32    36     9
   18    33    32    50     9
   18    33    57    55     9
   18    33    57    58     9
   32    33    57    55     9
   32    33    57    58     9
   25    34    35    27     9
   25    34    35    51     9
   25    34    54    55     9
   25    34    54    56     9
   35    34    54    55     9
   35    34    54    56     9
   27    35    34    54     9
   51    35    34    54     9
   27    35    51    41     9
   27    35    51    53     9
   34    35    51    41     9
   34    35    51    53     9
   37    36    32    50     9
   32    36    37    43     9
   32    36    58    57     9
   32    36    58    60     9
   37    36    58    57     9
   37    36    58    60     9
   36    37    30    49     9
   43    37    30    49     9
   30    37    36    32     9
   30    37    36    58     9
   43    37    36    58     9
   30    37    43    38     9
   30    37    43    59     9
   36    37    43    38     9
   36    37    43    59     9
   31    38    39    42     9
   31    38    43    37     9
   31    38    43    59     9
   39    38    43    59     9
   28    39    38    31     9
   28    39    38    43     9
   42    39    38    43     9
   28    39    42    40     9
   28    39    42    52     9
   38    39    42    40     9
   38    39    42    52     9
   29    40    41    51     9
   42    40    41    51     9
   29    40    42    39     9
   29    40    42    52     9
   41    40    42    52     9
   26    41    40    29     9
   26    41    40    42     9
   26    41    51    35     9
   26    41    51    53     9
   40    41    51    53     9
   39    42    40    41     9
   39    42    52    53     9
   39    42    52    59     9
   40    42    52    53     9
   40    42    52    59     9
   37    43    38    39     9
   37    43    59    52     9
   37    43    59    60     9
   38    43    59    52     9
   38    43    59    60     9
   13    44    21    20     9
   13    44    21    26     9
   13    44    45    14     9
   13    44    45    46     9
   21    44    45    46     9
   14    45    44    21     9
   14    45    46    47     9
   44    45    46    47     9
    3    46    45    14     9
    3    46    45    44     9
    3    46    47     4     9
    4    47     1     7     9
    1    47     4     5     9
    1    47     4    13     9
    1    47    46     3     9
    1    47    46    45     9
    4    47    46    45     9
    8    48    12    11     9
    8    48    12    22     9
    8    48    49    30     9
    8    48    49    50     9
   12    48    49    30     9
   12    48    49    50     9
   30    49    50    32     9
    9    50    32    33     9
    9    50    32    36     9
    9    50    49    30     9
    9    50    49    48     9
   32    50    49    48     9
   35    51    41    40     9
   35    51    53    52     9
   35    51    53    56     9
   41    51    53    52     9
   41    51    53    56     9
   42    52    53    51     9
   42    52    53    56     9
   42    52    59    43     9
   42    52    59    60     9
   53    52    59    60     9
   51    53    52    59     9
   56    53    52    59     9
   51    53    56    54     9
   51    53    56    60     9
   52    53    56    54     9
   52    53    56    60     9
   34    54    55    57     9
   56    54    55    57     9
   34    54    56    53     9
   34    54    56    60     9
   55    54    56    60     9
   24    55    54    34     9
   24    55    54    56     9
   24    55    57    33     9
   24    55    57    58     9
   54    55    57    58     9
   53    56    54    55     9
   53    56    60    58     9
   53    56    60    59     9
   54    56    60    58     9
   54    56    60    59     9
   33    57    55    54     9
   33    57    58    36     9
   33    57    58    60     9
   55    57    58    60     9
   36    58    57    55     9
   36    58    60    56     9
   36    58    60    59     9
   57    58    60    59     9
   43    59    52    53     9
   43    59    60    56     9
   43    59    60    58     9
   52    59    60    56     9
   52    59    60    58     9
   56    60    58    57     9

#ifdef POSRES
[ position_restraints ]
    1     1    POSRES_FC_BB    POSRES_FC_BB    POSRES_FC_BB   
    2     1    POSRES_FC_BB    POSRES_FC_BB    POSRES_FC_BB   
    3     1    POSRES_FC_BB    POSRES_FC_BB    POSRES_FC_BB   
    4     1    POSRES_FC_BB    POSRES_FC_BB    POSRES_FC_BB   
    5     1    POSRES_FC_BB    POSRES_FC_BB    POSRES_FC_BB   
    6     1    POSRES_FC_BB    POSRES_FC_BB    POSRES_FC_BB   
    7     1    POSRES_FC_BB    POSRES_FC_BB    POSRES_FC_BB   
    8     1    POSRES_FC_BB    POSRES_FC_BB    POSRES_FC_BB   
    9     1    POSRES_FC_BB    POSRES_FC_BB    POSRES_FC_BB   
   10     1    POSRES_FC_BB    POSRES_FC_BB    POSRES_FC_BB   
   11     1    POSRES_FC_BB    POSRES_FC_BB    POSRES_FC_BB   
   12     1    POSRES_FC_BB    POSRES_FC_BB    POSRES_FC_BB   
   13     1    POSRES_FC_BB    POSRES_FC_BB    POSRES_FC_BB   
   14     1    POSRES_FC_BB    POSRES_FC_BB    POSRES_FC_BB   
   15     1    POSRES_FC_BB    POSRES_FC_BB    POSRES_FC_BB   
   16     1    POSRES_FC_BB    POSRES_FC_BB    POSRES_FC_BB   
   17     1    POSRES_FC_BB    POSRES_FC_BB    POSRES_FC_BB   
   18     1    POSRES_FC_BB    POSRES_FC_BB    POSRES_FC_BB   
   19     1    POSRES_FC_BB    POSRES_FC_BB    POSRES_FC_BB   
   20     1    POSRES_FC_BB    POSRES_FC_BB    POSRES_FC_BB   
   21     1    POSRES_FC_BB    POSRES_FC_BB    POSRES_FC_BB   
   22     1    POSRES_FC_BB    POSRES_FC_BB    POSRES_FC_BB   
   23     1    POSRES_FC_BB    POSRES_FC_BB    POSRES_FC_BB   
   24     1    POSRES_FC_BB    POSRES_FC_BB    POSRES_FC_BB   
   25     1    POSRES_FC_BB    POSRES_FC_BB    POSRES_FC_BB   
   26     1    POSRES_FC_BB    POSRES_FC_BB    POSRES_FC_BB   
   27     1    POSRES_FC_BB    POSRES_FC_BB    POSRES_FC_BB   
   28     1    POSRES_FC_BB    POSRES_FC_BB    POSRES_FC_BB   
   29     1    POSRES_FC_BB    POSRES_FC_BB    POSRES_FC_BB   
   30     1    POSRES_FC_BB    POSRES_FC_BB    POSRES_FC_BB   
   31     1    POSRES_FC_BB    POSRES_FC_BB    POSRES_FC_BB   
   32     1    POSRES_FC_BB    POSRES_FC_BB    POSRES_FC_BB   
   33     1    POSRES_FC_BB    POSRES_FC_BB    POSRES_FC_BB   
   34     1    POSRES_FC_BB    POSRES_FC_BB    POSRES_FC_BB   
   35     1    POSRES_FC_BB    POSRES_FC_BB    POSRES_FC_BB   
   36     1    POSRES_FC_BB    POSRES_FC_BB    POSRES_FC_BB   
   37     1    POSRES_FC_BB    POSRES_FC_BB    POSRES_FC_BB   
   38     1    POSRES_FC_BB    POSRES_FC_BB    POSRES_FC_BB   
   39     1    POSRES_FC_BB    POSRES_FC_BB    POSRES_FC_BB   
   40     1    POSRES_FC_BB    POSRES_FC_BB    POSRES_FC_BB   
   41     1    POSRES_FC_BB    POSRES_FC_BB    POSRES_FC_BB   
   42     1    POSRES_FC_BB    POSRES_FC_BB    POSRES_FC_BB   
   43     1    POSRES_FC_BB    POSRES_FC_BB    POSRES_FC_BB   
   44     1    POSRES_FC_BB    POSRES_FC_BB    POSRES_FC_BB   
   45     1    POSRES_FC_BB    POSRES_FC_BB    POSRES_FC_BB   
   46     1    POSRES_FC_BB    POSRES_FC_BB    POSRES_FC_BB   
   47     1    POSRES_FC_BB    POSRES_FC_BB    POSRES_FC_BB   
   48     1    POSRES_FC_BB    POSRES_FC_BB    POSRES_FC_BB   
   49     1    POSRES_FC_BB    POSRES_FC_BB    POSRES_FC_BB   
   50     1    POSRES_FC_BB    POSRES_FC_BB    POSRES_FC_BB   
   51     1    POSRES_FC_BB    POSRES_FC_BB    POSRES_FC_BB   
   52     1    POSRES_FC_BB    POSRES_FC_BB    POSRES_FC_BB   
   53     1    POSRES_FC_BB    POSRES_FC_BB    POSRES_FC_BB   
   54     1    POSRES_FC_BB    POSRES_FC_BB    POSRES_FC_BB   
   55     1    POSRES_FC_BB    POSRES_FC_BB    POSRES_FC_BB   
   56     1    POSRES_FC_BB    POSRES_FC_BB    POSRES_FC_BB   
   57     1    POSRES_FC_BB    POSRES_FC_BB    POSRES_FC_BB   
   58     1    POSRES_FC_BB    POSRES_FC_BB    POSRES_FC_BB   
   59     1    POSRES_FC_BB    POSRES_FC_BB    POSRES_FC_BB   
   60     1    POSRES_FC_BB    POSRES_FC_BB    POSRES_FC_BB   
#endif
