;;
;; Generated by CHARMM-GUI FF-Converter
;;
;; Correspondance:
;; jul316@lehigh.edu or wonpil@lehigh.edu
;;
;; CHARMM FF in GROMACS format
;;


[ defaults ]
; nbfunc	comb-rule	gen-pairs	fudgeLJ	fudgeQQ
1	2	yes	1.000000	1.000000

[ atomtypes ]
; name	at.num	mass	charge	ptype	sigma	epsilon	;	sigma_14	epsilon_14
  CG2R61     6    12.0110      0.000     A    3.55005321205e-01    2.928800e-01 

[ bondtypes ]
; i	j	func	b0	Kb
 CG2R61  CG2R61     1  1.375000e-01  2.552240e+05

[ pairtypes ]
; i	j	func	sigma1-4	epsilon1-4

[ angletypes ]
; i	j	k	func	th0	Kth	s0	Kub
 CG2R61  CG2R61  CG2R61     5  1.2000000e+02  3.3472000e+02  2.4162000e-01  2.9288000e+04

[ dihedraltypes ]
; i	j	k	l	func	phi0	Kphi	mult
 CG2R61  CG2R61  CG2R61  CG2R61     9  1.800000e+02  1.297040e+01      2
