;;
;; Generated by CHARMM-GUI FF-Converter
;;
;; Correspondance:
;; jul316@lehigh.edu or wonpil@lehigh.edu
;;
;; GROMACS topology file for NMA
;;


[ moleculetype ]
; name	nrexcl
graphene	     3

[ atoms ]
; nr	type	resnr	residu	atom	cgnr	charge	mass
     1     CG2R61      1    GP001     C1      1     0.000000    12.0110   ; qtot  0.000
     2     CG2R61      1    GP001     C2      2     0.000000    12.0110   ; qtot  0.000
     3     CG2R61      1    GP001     C3      3     0.000000    12.0110   ; qtot  0.000
     4     CG2R61      1    GP001     C4      4     0.000000    12.0110   ; qtot  0.000
     5     CG2R61      1    GP001     C5      5     0.000000    12.0110   ; qtot  0.000
     6     CG2R61      1    GP001     C6      6     0.000000    12.0110   ; qtot  0.000
     7     CG2R61      1    GP001     C7      7     0.000000    12.0110   ; qtot  0.000
     8     CG2R61      1    GP001     C8      8     0.000000    12.0110   ; qtot  0.000
     9     CG2R61      2    GP001     C1      9     0.000000    12.0110   ; qtot  0.000
    10     CG2R61      2    GP001     C2     10     0.000000    12.0110   ; qtot  0.000
    11     CG2R61      2    GP001     C3     11     0.000000    12.0110   ; qtot  0.000
    12     CG2R61      2    GP001     C4     12     0.000000    12.0110   ; qtot  0.000
    13     CG2R61      2    GP001     C5     13     0.000000    12.0110   ; qtot  0.000
    14     CG2R61      2    GP001     C6     14     0.000000    12.0110   ; qtot  0.000
    15     CG2R61      2    GP001     C7     15     0.000000    12.0110   ; qtot  0.000
    16     CG2R61      2    GP001     C8     16     0.000000    12.0110   ; qtot  0.000
    17     CG2R61      3    GP001     C1     17     0.000000    12.0110   ; qtot  0.000
    18     CG2R61      3    GP001     C2     18     0.000000    12.0110   ; qtot  0.000
    19     CG2R61      3    GP001     C3     19     0.000000    12.0110   ; qtot  0.000
    20     CG2R61      3    GP001     C4     20     0.000000    12.0110   ; qtot  0.000
    21     CG2R61      3    GP001     C5     21     0.000000    12.0110   ; qtot  0.000
    22     CG2R61      3    GP001     C6     22     0.000000    12.0110   ; qtot  0.000
    23     CG2R61      3    GP001     C7     23     0.000000    12.0110   ; qtot  0.000
    24     CG2R61      3    GP001     C8     24     0.000000    12.0110   ; qtot  0.000
    25     CG2R61      4    GP001     C1     25     0.000000    12.0110   ; qtot  0.000
    26     CG2R61      4    GP001     C2     26     0.000000    12.0110   ; qtot  0.000
    27     CG2R61      4    GP001     C3     27     0.000000    12.0110   ; qtot  0.000
    28     CG2R61      4    GP001     C4     28     0.000000    12.0110   ; qtot  0.000
    29     CG2R61      4    GP001     C5     29     0.000000    12.0110   ; qtot  0.000
    30     CG2R61      4    GP001     C6     30     0.000000    12.0110   ; qtot  0.000
    31     CG2R61      4    GP001     C7     31     0.000000    12.0110   ; qtot  0.000
    32     CG2R61      4    GP001     C8     32     0.000000    12.0110   ; qtot  0.000
    33     CG2R61      5    GP001     C1     33     0.000000    12.0110   ; qtot  0.000
    34     CG2R61      5    GP001     C2     34     0.000000    12.0110   ; qtot  0.000
    35     CG2R61      5    GP001     C3     35     0.000000    12.0110   ; qtot  0.000
    36     CG2R61      5    GP001     C4     36     0.000000    12.0110   ; qtot  0.000
    37     CG2R61      5    GP001     C5     37     0.000000    12.0110   ; qtot  0.000
    38     CG2R61      5    GP001     C6     38     0.000000    12.0110   ; qtot  0.000
    39     CG2R61      5    GP001     C7     39     0.000000    12.0110   ; qtot  0.000
    40     CG2R61      5    GP001     C8     40     0.000000    12.0110   ; qtot  0.000
    41     CG2R61      6    GP001     C1     41     0.000000    12.0110   ; qtot  0.000
    42     CG2R61      6    GP001     C2     42     0.000000    12.0110   ; qtot  0.000
    43     CG2R61      6    GP001     C3     43     0.000000    12.0110   ; qtot  0.000
    44     CG2R61      6    GP001     C4     44     0.000000    12.0110   ; qtot  0.000
    45     CG2R61      6    GP001     C5     45     0.000000    12.0110   ; qtot  0.000
    46     CG2R61      6    GP001     C6     46     0.000000    12.0110   ; qtot  0.000
    47     CG2R61      6    GP001     C7     47     0.000000    12.0110   ; qtot  0.000
    48     CG2R61      6    GP001     C8     48     0.000000    12.0110   ; qtot  0.000
    49     CG2R61      7    GP001     C1     49     0.000000    12.0110   ; qtot  0.000
    50     CG2R61      7    GP001     C2     50     0.000000    12.0110   ; qtot  0.000
    51     CG2R61      7    GP001     C3     51     0.000000    12.0110   ; qtot  0.000
    52     CG2R61      7    GP001     C4     52     0.000000    12.0110   ; qtot  0.000
    53     CG2R61      7    GP001     C5     53     0.000000    12.0110   ; qtot  0.000
    54     CG2R61      7    GP001     C6     54     0.000000    12.0110   ; qtot  0.000
    55     CG2R61      7    GP001     C7     55     0.000000    12.0110   ; qtot  0.000
    56     CG2R61      7    GP001     C8     56     0.000000    12.0110   ; qtot  0.000
    57     CG2R61      8    GP001     C1     57     0.000000    12.0110   ; qtot  0.000
    58     CG2R61      8    GP001     C2     58     0.000000    12.0110   ; qtot  0.000
    59     CG2R61      8    GP001     C3     59     0.000000    12.0110   ; qtot  0.000
    60     CG2R61      8    GP001     C4     60     0.000000    12.0110   ; qtot  0.000
    61     CG2R61      8    GP001     C5     61     0.000000    12.0110   ; qtot  0.000
    62     CG2R61      8    GP001     C6     62     0.000000    12.0110   ; qtot  0.000
    63     CG2R61      8    GP001     C7     63     0.000000    12.0110   ; qtot  0.000
    64     CG2R61      8    GP001     C8     64     0.000000    12.0110   ; qtot  0.000
    65     CG2R61      9    GP001     C1     65     0.000000    12.0110   ; qtot  0.000
    66     CG2R61      9    GP001     C2     66     0.000000    12.0110   ; qtot  0.000
    67     CG2R61      9    GP001     C3     67     0.000000    12.0110   ; qtot  0.000
    68     CG2R61      9    GP001     C4     68     0.000000    12.0110   ; qtot  0.000
    69     CG2R61      9    GP001     C5     69     0.000000    12.0110   ; qtot  0.000
    70     CG2R61      9    GP001     C6     70     0.000000    12.0110   ; qtot  0.000
    71     CG2R61      9    GP001     C7     71     0.000000    12.0110   ; qtot  0.000
    72     CG2R61      9    GP001     C8     72     0.000000    12.0110   ; qtot  0.000
    73     CG2R61     10    GP001     C1     73     0.000000    12.0110   ; qtot  0.000
    74     CG2R61     10    GP001     C2     74     0.000000    12.0110   ; qtot  0.000
    75     CG2R61     10    GP001     C3     75     0.000000    12.0110   ; qtot  0.000
    76     CG2R61     10    GP001     C4     76     0.000000    12.0110   ; qtot  0.000
    77     CG2R61     10    GP001     C5     77     0.000000    12.0110   ; qtot  0.000
    78     CG2R61     10    GP001     C6     78     0.000000    12.0110   ; qtot  0.000
    79     CG2R61     10    GP001     C7     79     0.000000    12.0110   ; qtot  0.000
    80     CG2R61     10    GP001     C8     80     0.000000    12.0110   ; qtot  0.000
    81     CG2R61     11    GP001     C1     81     0.000000    12.0110   ; qtot  0.000
    82     CG2R61     11    GP001     C2     82     0.000000    12.0110   ; qtot  0.000
    83     CG2R61     11    GP001     C3     83     0.000000    12.0110   ; qtot  0.000
    84     CG2R61     11    GP001     C4     84     0.000000    12.0110   ; qtot  0.000
    85     CG2R61     11    GP001     C5     85     0.000000    12.0110   ; qtot  0.000
    86     CG2R61     11    GP001     C6     86     0.000000    12.0110   ; qtot  0.000
    87     CG2R61     11    GP001     C7     87     0.000000    12.0110   ; qtot  0.000
    88     CG2R61     11    GP001     C8     88     0.000000    12.0110   ; qtot  0.000
    89     CG2R61     12    GP001     C1     89     0.000000    12.0110   ; qtot  0.000
    90     CG2R61     12    GP001     C2     90     0.000000    12.0110   ; qtot  0.000
    91     CG2R61     12    GP001     C3     91     0.000000    12.0110   ; qtot  0.000
    92     CG2R61     12    GP001     C4     92     0.000000    12.0110   ; qtot  0.000
    93     CG2R61     12    GP001     C5     93     0.000000    12.0110   ; qtot  0.000
    94     CG2R61     12    GP001     C6     94     0.000000    12.0110   ; qtot  0.000
    95     CG2R61     12    GP001     C7     95     0.000000    12.0110   ; qtot  0.000
    96     CG2R61     12    GP001     C8     96     0.000000    12.0110   ; qtot  0.000
    97     CG2R61     13    GP001     C1     97     0.000000    12.0110   ; qtot  0.000
    98     CG2R61     13    GP001     C2     98     0.000000    12.0110   ; qtot  0.000
    99     CG2R61     13    GP001     C3     99     0.000000    12.0110   ; qtot  0.000
   100     CG2R61     13    GP001     C4    100     0.000000    12.0110   ; qtot  0.000
   101     CG2R61     13    GP001     C5    101     0.000000    12.0110   ; qtot  0.000
   102     CG2R61     13    GP001     C6    102     0.000000    12.0110   ; qtot  0.000
   103     CG2R61     13    GP001     C7    103     0.000000    12.0110   ; qtot  0.000
   104     CG2R61     13    GP001     C8    104     0.000000    12.0110   ; qtot  0.000
   105     CG2R61     14    GP001     C1    105     0.000000    12.0110   ; qtot  0.000
   106     CG2R61     14    GP001     C2    106     0.000000    12.0110   ; qtot  0.000
   107     CG2R61     14    GP001     C3    107     0.000000    12.0110   ; qtot  0.000
   108     CG2R61     14    GP001     C4    108     0.000000    12.0110   ; qtot  0.000
   109     CG2R61     14    GP001     C5    109     0.000000    12.0110   ; qtot  0.000
   110     CG2R61     14    GP001     C6    110     0.000000    12.0110   ; qtot  0.000
   111     CG2R61     14    GP001     C7    111     0.000000    12.0110   ; qtot  0.000
   112     CG2R61     14    GP001     C8    112     0.000000    12.0110   ; qtot  0.000
   113     CG2R61     15    GP001     C1    113     0.000000    12.0110   ; qtot  0.000
   114     CG2R61     15    GP001     C2    114     0.000000    12.0110   ; qtot  0.000
   115     CG2R61     15    GP001     C3    115     0.000000    12.0110   ; qtot  0.000
   116     CG2R61     15    GP001     C4    116     0.000000    12.0110   ; qtot  0.000
   117     CG2R61     15    GP001     C5    117     0.000000    12.0110   ; qtot  0.000
   118     CG2R61     15    GP001     C6    118     0.000000    12.0110   ; qtot  0.000
   119     CG2R61     15    GP001     C7    119     0.000000    12.0110   ; qtot  0.000
   120     CG2R61     15    GP001     C8    120     0.000000    12.0110   ; qtot  0.000
   121     CG2R61     16    GP001     C1    121     0.000000    12.0110   ; qtot  0.000
   122     CG2R61     16    GP001     C2    122     0.000000    12.0110   ; qtot  0.000
   123     CG2R61     16    GP001     C3    123     0.000000    12.0110   ; qtot  0.000
   124     CG2R61     16    GP001     C4    124     0.000000    12.0110   ; qtot  0.000
   125     CG2R61     16    GP001     C5    125     0.000000    12.0110   ; qtot  0.000
   126     CG2R61     16    GP001     C6    126     0.000000    12.0110   ; qtot  0.000
   127     CG2R61     16    GP001     C7    127     0.000000    12.0110   ; qtot  0.000
   128     CG2R61     16    GP001     C8    128     0.000000    12.0110   ; qtot  0.000
   129     CG2R61     17    GP001     C1    129     0.000000    12.0110   ; qtot  0.000
   130     CG2R61     17    GP001     C2    130     0.000000    12.0110   ; qtot  0.000
   131     CG2R61     17    GP001     C3    131     0.000000    12.0110   ; qtot  0.000
   132     CG2R61     17    GP001     C4    132     0.000000    12.0110   ; qtot  0.000
   133     CG2R61     17    GP001     C5    133     0.000000    12.0110   ; qtot  0.000
   134     CG2R61     17    GP001     C6    134     0.000000    12.0110   ; qtot  0.000
   135     CG2R61     17    GP001     C7    135     0.000000    12.0110   ; qtot  0.000
   136     CG2R61     17    GP001     C8    136     0.000000    12.0110   ; qtot  0.000
   137     CG2R61     18    GP001     C1    137     0.000000    12.0110   ; qtot  0.000
   138     CG2R61     18    GP001     C2    138     0.000000    12.0110   ; qtot  0.000
   139     CG2R61     18    GP001     C3    139     0.000000    12.0110   ; qtot  0.000
   140     CG2R61     18    GP001     C4    140     0.000000    12.0110   ; qtot  0.000
   141     CG2R61     18    GP001     C5    141     0.000000    12.0110   ; qtot  0.000
   142     CG2R61     18    GP001     C6    142     0.000000    12.0110   ; qtot  0.000
   143     CG2R61     18    GP001     C7    143     0.000000    12.0110   ; qtot  0.000
   144     CG2R61     18    GP001     C8    144     0.000000    12.0110   ; qtot  0.000
   145     CG2R61     19    GP001     C1    145     0.000000    12.0110   ; qtot  0.000
   146     CG2R61     19    GP001     C2    146     0.000000    12.0110   ; qtot  0.000
   147     CG2R61     19    GP001     C3    147     0.000000    12.0110   ; qtot  0.000
   148     CG2R61     19    GP001     C4    148     0.000000    12.0110   ; qtot  0.000
   149     CG2R61     19    GP001     C5    149     0.000000    12.0110   ; qtot  0.000
   150     CG2R61     19    GP001     C6    150     0.000000    12.0110   ; qtot  0.000
   151     CG2R61     19    GP001     C7    151     0.000000    12.0110   ; qtot  0.000
   152     CG2R61     19    GP001     C8    152     0.000000    12.0110   ; qtot  0.000
   153     CG2R61     20    GP001     C1    153     0.000000    12.0110   ; qtot  0.000
   154     CG2R61     20    GP001     C2    154     0.000000    12.0110   ; qtot  0.000
   155     CG2R61     20    GP001     C3    155     0.000000    12.0110   ; qtot  0.000
   156     CG2R61     20    GP001     C4    156     0.000000    12.0110   ; qtot  0.000
   157     CG2R61     20    GP001     C5    157     0.000000    12.0110   ; qtot  0.000
   158     CG2R61     20    GP001     C6    158     0.000000    12.0110   ; qtot  0.000
   159     CG2R61     20    GP001     C7    159     0.000000    12.0110   ; qtot  0.000
   160     CG2R61     20    GP001     C8    160     0.000000    12.0110   ; qtot  0.000
   161     CG2R61     21    GP001     C1    161     0.000000    12.0110   ; qtot  0.000
   162     CG2R61     21    GP001     C2    162     0.000000    12.0110   ; qtot  0.000
   163     CG2R61     21    GP001     C3    163     0.000000    12.0110   ; qtot  0.000
   164     CG2R61     21    GP001     C4    164     0.000000    12.0110   ; qtot  0.000
   165     CG2R61     21    GP001     C5    165     0.000000    12.0110   ; qtot  0.000
   166     CG2R61     21    GP001     C6    166     0.000000    12.0110   ; qtot  0.000
   167     CG2R61     21    GP001     C7    167     0.000000    12.0110   ; qtot  0.000
   168     CG2R61     21    GP001     C8    168     0.000000    12.0110   ; qtot  0.000
   169     CG2R61     22    GP001     C1    169     0.000000    12.0110   ; qtot  0.000
   170     CG2R61     22    GP001     C2    170     0.000000    12.0110   ; qtot  0.000
   171     CG2R61     22    GP001     C3    171     0.000000    12.0110   ; qtot  0.000
   172     CG2R61     22    GP001     C4    172     0.000000    12.0110   ; qtot  0.000
   173     CG2R61     22    GP001     C5    173     0.000000    12.0110   ; qtot  0.000
   174     CG2R61     22    GP001     C6    174     0.000000    12.0110   ; qtot  0.000
   175     CG2R61     22    GP001     C7    175     0.000000    12.0110   ; qtot  0.000
   176     CG2R61     22    GP001     C8    176     0.000000    12.0110   ; qtot  0.000
   177     CG2R61     23    GP001     C1    177     0.000000    12.0110   ; qtot  0.000
   178     CG2R61     23    GP001     C2    178     0.000000    12.0110   ; qtot  0.000
   179     CG2R61     23    GP001     C3    179     0.000000    12.0110   ; qtot  0.000
   180     CG2R61     23    GP001     C4    180     0.000000    12.0110   ; qtot  0.000
   181     CG2R61     23    GP001     C5    181     0.000000    12.0110   ; qtot  0.000
   182     CG2R61     23    GP001     C6    182     0.000000    12.0110   ; qtot  0.000
   183     CG2R61     23    GP001     C7    183     0.000000    12.0110   ; qtot  0.000
   184     CG2R61     23    GP001     C8    184     0.000000    12.0110   ; qtot  0.000
   185     CG2R61     24    GP001     C1    185     0.000000    12.0110   ; qtot  0.000
   186     CG2R61     24    GP001     C2    186     0.000000    12.0110   ; qtot  0.000
   187     CG2R61     24    GP001     C3    187     0.000000    12.0110   ; qtot  0.000
   188     CG2R61     24    GP001     C4    188     0.000000    12.0110   ; qtot  0.000
   189     CG2R61     24    GP001     C5    189     0.000000    12.0110   ; qtot  0.000
   190     CG2R61     24    GP001     C6    190     0.000000    12.0110   ; qtot  0.000
   191     CG2R61     24    GP001     C7    191     0.000000    12.0110   ; qtot  0.000
   192     CG2R61     24    GP001     C8    192     0.000000    12.0110   ; qtot  0.000
   193     CG2R61     25    GP001     C1    193     0.000000    12.0110   ; qtot  0.000
   194     CG2R61     25    GP001     C2    194     0.000000    12.0110   ; qtot  0.000
   195     CG2R61     25    GP001     C3    195     0.000000    12.0110   ; qtot  0.000
   196     CG2R61     25    GP001     C4    196     0.000000    12.0110   ; qtot  0.000
   197     CG2R61     25    GP001     C5    197     0.000000    12.0110   ; qtot  0.000
   198     CG2R61     25    GP001     C6    198     0.000000    12.0110   ; qtot  0.000
   199     CG2R61     25    GP001     C7    199     0.000000    12.0110   ; qtot  0.000
   200     CG2R61     25    GP001     C8    200     0.000000    12.0110   ; qtot  0.000
   201     CG2R61     26    GP001     C1    201     0.000000    12.0110   ; qtot  0.000
   202     CG2R61     26    GP001     C2    202     0.000000    12.0110   ; qtot  0.000
   203     CG2R61     26    GP001     C3    203     0.000000    12.0110   ; qtot  0.000
   204     CG2R61     26    GP001     C4    204     0.000000    12.0110   ; qtot  0.000
   205     CG2R61     26    GP001     C5    205     0.000000    12.0110   ; qtot  0.000
   206     CG2R61     26    GP001     C6    206     0.000000    12.0110   ; qtot  0.000
   207     CG2R61     26    GP001     C7    207     0.000000    12.0110   ; qtot  0.000
   208     CG2R61     26    GP001     C8    208     0.000000    12.0110   ; qtot  0.000
   209     CG2R61     27    GP001     C1    209     0.000000    12.0110   ; qtot  0.000
   210     CG2R61     27    GP001     C2    210     0.000000    12.0110   ; qtot  0.000
   211     CG2R61     27    GP001     C3    211     0.000000    12.0110   ; qtot  0.000
   212     CG2R61     27    GP001     C4    212     0.000000    12.0110   ; qtot  0.000
   213     CG2R61     27    GP001     C5    213     0.000000    12.0110   ; qtot  0.000
   214     CG2R61     27    GP001     C6    214     0.000000    12.0110   ; qtot  0.000
   215     CG2R61     27    GP001     C7    215     0.000000    12.0110   ; qtot  0.000
   216     CG2R61     27    GP001     C8    216     0.000000    12.0110   ; qtot  0.000
   217     CG2R61     28    GP001     C1    217     0.000000    12.0110   ; qtot  0.000
   218     CG2R61     28    GP001     C2    218     0.000000    12.0110   ; qtot  0.000
   219     CG2R61     28    GP001     C3    219     0.000000    12.0110   ; qtot  0.000
   220     CG2R61     28    GP001     C4    220     0.000000    12.0110   ; qtot  0.000
   221     CG2R61     28    GP001     C5    221     0.000000    12.0110   ; qtot  0.000
   222     CG2R61     28    GP001     C6    222     0.000000    12.0110   ; qtot  0.000
   223     CG2R61     28    GP001     C7    223     0.000000    12.0110   ; qtot  0.000
   224     CG2R61     28    GP001     C8    224     0.000000    12.0110   ; qtot  0.000
   225     CG2R61     29    GP001     C1    225     0.000000    12.0110   ; qtot  0.000
   226     CG2R61     29    GP001     C2    226     0.000000    12.0110   ; qtot  0.000
   227     CG2R61     29    GP001     C3    227     0.000000    12.0110   ; qtot  0.000
   228     CG2R61     29    GP001     C4    228     0.000000    12.0110   ; qtot  0.000
   229     CG2R61     29    GP001     C5    229     0.000000    12.0110   ; qtot  0.000
   230     CG2R61     29    GP001     C6    230     0.000000    12.0110   ; qtot  0.000
   231     CG2R61     29    GP001     C7    231     0.000000    12.0110   ; qtot  0.000
   232     CG2R61     29    GP001     C8    232     0.000000    12.0110   ; qtot  0.000
   233     CG2R61     30    GP001     C1    233     0.000000    12.0110   ; qtot  0.000
   234     CG2R61     30    GP001     C2    234     0.000000    12.0110   ; qtot  0.000
   235     CG2R61     30    GP001     C3    235     0.000000    12.0110   ; qtot  0.000
   236     CG2R61     30    GP001     C4    236     0.000000    12.0110   ; qtot  0.000
   237     CG2R61     30    GP001     C5    237     0.000000    12.0110   ; qtot  0.000
   238     CG2R61     30    GP001     C6    238     0.000000    12.0110   ; qtot  0.000
   239     CG2R61     30    GP001     C7    239     0.000000    12.0110   ; qtot  0.000
   240     CG2R61     30    GP001     C8    240     0.000000    12.0110   ; qtot  0.000
   241     CG2R61     31    GP001     C1    241     0.000000    12.0110   ; qtot  0.000
   242     CG2R61     31    GP001     C2    242     0.000000    12.0110   ; qtot  0.000
   243     CG2R61     31    GP001     C3    243     0.000000    12.0110   ; qtot  0.000
   244     CG2R61     31    GP001     C4    244     0.000000    12.0110   ; qtot  0.000
   245     CG2R61     31    GP001     C5    245     0.000000    12.0110   ; qtot  0.000
   246     CG2R61     31    GP001     C6    246     0.000000    12.0110   ; qtot  0.000
   247     CG2R61     31    GP001     C7    247     0.000000    12.0110   ; qtot  0.000
   248     CG2R61     31    GP001     C8    248     0.000000    12.0110   ; qtot  0.000
   249     CG2R61     32    GP001     C1    249     0.000000    12.0110   ; qtot  0.000
   250     CG2R61     32    GP001     C2    250     0.000000    12.0110   ; qtot  0.000
   251     CG2R61     32    GP001     C3    251     0.000000    12.0110   ; qtot  0.000
   252     CG2R61     32    GP001     C4    252     0.000000    12.0110   ; qtot  0.000
   253     CG2R61     32    GP001     C5    253     0.000000    12.0110   ; qtot  0.000
   254     CG2R61     32    GP001     C6    254     0.000000    12.0110   ; qtot  0.000
   255     CG2R61     32    GP001     C7    255     0.000000    12.0110   ; qtot  0.000
   256     CG2R61     32    GP001     C8    256     0.000000    12.0110   ; qtot  0.000
   257     CG2R61     33    GP001     C1    257     0.000000    12.0110   ; qtot  0.000
   258     CG2R61     33    GP001     C2    258     0.000000    12.0110   ; qtot  0.000
   259     CG2R61     33    GP001     C3    259     0.000000    12.0110   ; qtot  0.000
   260     CG2R61     33    GP001     C4    260     0.000000    12.0110   ; qtot  0.000
   261     CG2R61     33    GP001     C5    261     0.000000    12.0110   ; qtot  0.000
   262     CG2R61     33    GP001     C6    262     0.000000    12.0110   ; qtot  0.000
   263     CG2R61     33    GP001     C7    263     0.000000    12.0110   ; qtot  0.000
   264     CG2R61     33    GP001     C8    264     0.000000    12.0110   ; qtot  0.000
   265     CG2R61     34    GP001     C1    265     0.000000    12.0110   ; qtot  0.000
   266     CG2R61     34    GP001     C2    266     0.000000    12.0110   ; qtot  0.000
   267     CG2R61     34    GP001     C3    267     0.000000    12.0110   ; qtot  0.000
   268     CG2R61     34    GP001     C4    268     0.000000    12.0110   ; qtot  0.000
   269     CG2R61     34    GP001     C5    269     0.000000    12.0110   ; qtot  0.000
   270     CG2R61     34    GP001     C6    270     0.000000    12.0110   ; qtot  0.000
   271     CG2R61     34    GP001     C7    271     0.000000    12.0110   ; qtot  0.000
   272     CG2R61     34    GP001     C8    272     0.000000    12.0110   ; qtot  0.000
   273     CG2R61     35    GP001     C1    273     0.000000    12.0110   ; qtot  0.000
   274     CG2R61     35    GP001     C2    274     0.000000    12.0110   ; qtot  0.000
   275     CG2R61     35    GP001     C3    275     0.000000    12.0110   ; qtot  0.000
   276     CG2R61     35    GP001     C4    276     0.000000    12.0110   ; qtot  0.000
   277     CG2R61     35    GP001     C5    277     0.000000    12.0110   ; qtot  0.000
   278     CG2R61     35    GP001     C6    278     0.000000    12.0110   ; qtot  0.000
   279     CG2R61     35    GP001     C7    279     0.000000    12.0110   ; qtot  0.000
   280     CG2R61     35    GP001     C8    280     0.000000    12.0110   ; qtot  0.000
   281     CG2R61     36    GP001     C1    281     0.000000    12.0110   ; qtot  0.000
   282     CG2R61     36    GP001     C2    282     0.000000    12.0110   ; qtot  0.000
   283     CG2R61     36    GP001     C3    283     0.000000    12.0110   ; qtot  0.000
   284     CG2R61     36    GP001     C4    284     0.000000    12.0110   ; qtot  0.000
   285     CG2R61     36    GP001     C5    285     0.000000    12.0110   ; qtot  0.000
   286     CG2R61     36    GP001     C6    286     0.000000    12.0110   ; qtot  0.000
   287     CG2R61     36    GP001     C7    287     0.000000    12.0110   ; qtot  0.000
   288     CG2R61     36    GP001     C8    288     0.000000    12.0110   ; qtot  0.000
   289     CG2R61     37    GP001     C1    289     0.000000    12.0110   ; qtot  0.000
   290     CG2R61     37    GP001     C2    290     0.000000    12.0110   ; qtot  0.000
   291     CG2R61     37    GP001     C3    291     0.000000    12.0110   ; qtot  0.000
   292     CG2R61     37    GP001     C4    292     0.000000    12.0110   ; qtot  0.000
   293     CG2R61     37    GP001     C5    293     0.000000    12.0110   ; qtot  0.000
   294     CG2R61     37    GP001     C6    294     0.000000    12.0110   ; qtot  0.000
   295     CG2R61     37    GP001     C7    295     0.000000    12.0110   ; qtot  0.000
   296     CG2R61     37    GP001     C8    296     0.000000    12.0110   ; qtot  0.000
   297     CG2R61     38    GP001     C1    297     0.000000    12.0110   ; qtot  0.000
   298     CG2R61     38    GP001     C2    298     0.000000    12.0110   ; qtot  0.000
   299     CG2R61     38    GP001     C3    299     0.000000    12.0110   ; qtot  0.000
   300     CG2R61     38    GP001     C4    300     0.000000    12.0110   ; qtot  0.000
   301     CG2R61     38    GP001     C5    301     0.000000    12.0110   ; qtot  0.000
   302     CG2R61     38    GP001     C6    302     0.000000    12.0110   ; qtot  0.000
   303     CG2R61     38    GP001     C7    303     0.000000    12.0110   ; qtot  0.000
   304     CG2R61     38    GP001     C8    304     0.000000    12.0110   ; qtot  0.000
   305     CG2R61     39    GP001     C1    305     0.000000    12.0110   ; qtot  0.000
   306     CG2R61     39    GP001     C2    306     0.000000    12.0110   ; qtot  0.000
   307     CG2R61     39    GP001     C3    307     0.000000    12.0110   ; qtot  0.000
   308     CG2R61     39    GP001     C4    308     0.000000    12.0110   ; qtot  0.000
   309     CG2R61     39    GP001     C5    309     0.000000    12.0110   ; qtot  0.000
   310     CG2R61     39    GP001     C6    310     0.000000    12.0110   ; qtot  0.000
   311     CG2R61     39    GP001     C7    311     0.000000    12.0110   ; qtot  0.000
   312     CG2R61     39    GP001     C8    312     0.000000    12.0110   ; qtot  0.000
   313     CG2R61     40    GP001     C1    313     0.000000    12.0110   ; qtot  0.000
   314     CG2R61     40    GP001     C2    314     0.000000    12.0110   ; qtot  0.000
   315     CG2R61     40    GP001     C3    315     0.000000    12.0110   ; qtot  0.000
   316     CG2R61     40    GP001     C4    316     0.000000    12.0110   ; qtot  0.000
   317     CG2R61     40    GP001     C5    317     0.000000    12.0110   ; qtot  0.000
   318     CG2R61     40    GP001     C6    318     0.000000    12.0110   ; qtot  0.000
   319     CG2R61     40    GP001     C7    319     0.000000    12.0110   ; qtot  0.000
   320     CG2R61     40    GP001     C8    320     0.000000    12.0110   ; qtot  0.000
   321     CG2R61     41    GP001     C1    321     0.000000    12.0110   ; qtot  0.000
   322     CG2R61     41    GP001     C2    322     0.000000    12.0110   ; qtot  0.000
   323     CG2R61     41    GP001     C3    323     0.000000    12.0110   ; qtot  0.000
   324     CG2R61     41    GP001     C4    324     0.000000    12.0110   ; qtot  0.000
   325     CG2R61     41    GP001     C5    325     0.000000    12.0110   ; qtot  0.000
   326     CG2R61     41    GP001     C6    326     0.000000    12.0110   ; qtot  0.000
   327     CG2R61     41    GP001     C7    327     0.000000    12.0110   ; qtot  0.000
   328     CG2R61     41    GP001     C8    328     0.000000    12.0110   ; qtot  0.000
   329     CG2R61     42    GP001     C1    329     0.000000    12.0110   ; qtot  0.000
   330     CG2R61     42    GP001     C2    330     0.000000    12.0110   ; qtot  0.000
   331     CG2R61     42    GP001     C3    331     0.000000    12.0110   ; qtot  0.000
   332     CG2R61     42    GP001     C4    332     0.000000    12.0110   ; qtot  0.000
   333     CG2R61     42    GP001     C5    333     0.000000    12.0110   ; qtot  0.000
   334     CG2R61     42    GP001     C6    334     0.000000    12.0110   ; qtot  0.000
   335     CG2R61     42    GP001     C7    335     0.000000    12.0110   ; qtot  0.000
   336     CG2R61     42    GP001     C8    336     0.000000    12.0110   ; qtot  0.000
   337     CG2R61     43    GP001     C1    337     0.000000    12.0110   ; qtot  0.000
   338     CG2R61     43    GP001     C2    338     0.000000    12.0110   ; qtot  0.000
   339     CG2R61     43    GP001     C3    339     0.000000    12.0110   ; qtot  0.000
   340     CG2R61     43    GP001     C4    340     0.000000    12.0110   ; qtot  0.000
   341     CG2R61     43    GP001     C5    341     0.000000    12.0110   ; qtot  0.000
   342     CG2R61     43    GP001     C6    342     0.000000    12.0110   ; qtot  0.000
   343     CG2R61     43    GP001     C7    343     0.000000    12.0110   ; qtot  0.000
   344     CG2R61     43    GP001     C8    344     0.000000    12.0110   ; qtot  0.000
   345     CG2R61     44    GP001     C1    345     0.000000    12.0110   ; qtot  0.000
   346     CG2R61     44    GP001     C2    346     0.000000    12.0110   ; qtot  0.000
   347     CG2R61     44    GP001     C3    347     0.000000    12.0110   ; qtot  0.000
   348     CG2R61     44    GP001     C4    348     0.000000    12.0110   ; qtot  0.000
   349     CG2R61     44    GP001     C5    349     0.000000    12.0110   ; qtot  0.000
   350     CG2R61     44    GP001     C6    350     0.000000    12.0110   ; qtot  0.000
   351     CG2R61     44    GP001     C7    351     0.000000    12.0110   ; qtot  0.000
   352     CG2R61     44    GP001     C8    352     0.000000    12.0110   ; qtot  0.000
   353     CG2R61     45    GP001     C1    353     0.000000    12.0110   ; qtot  0.000
   354     CG2R61     45    GP001     C2    354     0.000000    12.0110   ; qtot  0.000
   355     CG2R61     45    GP001     C3    355     0.000000    12.0110   ; qtot  0.000
   356     CG2R61     45    GP001     C4    356     0.000000    12.0110   ; qtot  0.000
   357     CG2R61     45    GP001     C5    357     0.000000    12.0110   ; qtot  0.000
   358     CG2R61     45    GP001     C6    358     0.000000    12.0110   ; qtot  0.000
   359     CG2R61     45    GP001     C7    359     0.000000    12.0110   ; qtot  0.000
   360     CG2R61     45    GP001     C8    360     0.000000    12.0110   ; qtot  0.000
   361     CG2R61     46    GP001     C1    361     0.000000    12.0110   ; qtot  0.000
   362     CG2R61     46    GP001     C2    362     0.000000    12.0110   ; qtot  0.000
   363     CG2R61     46    GP001     C3    363     0.000000    12.0110   ; qtot  0.000
   364     CG2R61     46    GP001     C4    364     0.000000    12.0110   ; qtot  0.000
   365     CG2R61     46    GP001     C5    365     0.000000    12.0110   ; qtot  0.000
   366     CG2R61     46    GP001     C6    366     0.000000    12.0110   ; qtot  0.000
   367     CG2R61     46    GP001     C7    367     0.000000    12.0110   ; qtot  0.000
   368     CG2R61     46    GP001     C8    368     0.000000    12.0110   ; qtot  0.000
   369     CG2R61     47    GP001     C1    369     0.000000    12.0110   ; qtot  0.000
   370     CG2R61     47    GP001     C2    370     0.000000    12.0110   ; qtot  0.000
   371     CG2R61     47    GP001     C3    371     0.000000    12.0110   ; qtot  0.000
   372     CG2R61     47    GP001     C4    372     0.000000    12.0110   ; qtot  0.000
   373     CG2R61     47    GP001     C5    373     0.000000    12.0110   ; qtot  0.000
   374     CG2R61     47    GP001     C6    374     0.000000    12.0110   ; qtot  0.000
   375     CG2R61     47    GP001     C7    375     0.000000    12.0110   ; qtot  0.000
   376     CG2R61     47    GP001     C8    376     0.000000    12.0110   ; qtot  0.000
   377     CG2R61     48    GP001     C1    377     0.000000    12.0110   ; qtot  0.000
   378     CG2R61     48    GP001     C2    378     0.000000    12.0110   ; qtot  0.000
   379     CG2R61     48    GP001     C3    379     0.000000    12.0110   ; qtot  0.000
   380     CG2R61     48    GP001     C4    380     0.000000    12.0110   ; qtot  0.000
   381     CG2R61     48    GP001     C5    381     0.000000    12.0110   ; qtot  0.000
   382     CG2R61     48    GP001     C6    382     0.000000    12.0110   ; qtot  0.000
   383     CG2R61     48    GP001     C7    383     0.000000    12.0110   ; qtot  0.000
   384     CG2R61     48    GP001     C8    384     0.000000    12.0110   ; qtot  0.000
   385     CG2R61     49    GP001     C1    385     0.000000    12.0110   ; qtot  0.000
   386     CG2R61     49    GP001     C2    386     0.000000    12.0110   ; qtot  0.000
   387     CG2R61     49    GP001     C3    387     0.000000    12.0110   ; qtot  0.000
   388     CG2R61     49    GP001     C4    388     0.000000    12.0110   ; qtot  0.000
   389     CG2R61     49    GP001     C5    389     0.000000    12.0110   ; qtot  0.000
   390     CG2R61     49    GP001     C6    390     0.000000    12.0110   ; qtot  0.000
   391     CG2R61     49    GP001     C7    391     0.000000    12.0110   ; qtot  0.000
   392     CG2R61     49    GP001     C8    392     0.000000    12.0110   ; qtot  0.000
   393     CG2R61     50    GP001     C1    393     0.000000    12.0110   ; qtot  0.000
   394     CG2R61     50    GP001     C2    394     0.000000    12.0110   ; qtot  0.000
   395     CG2R61     50    GP001     C3    395     0.000000    12.0110   ; qtot  0.000
   396     CG2R61     50    GP001     C4    396     0.000000    12.0110   ; qtot  0.000
   397     CG2R61     50    GP001     C5    397     0.000000    12.0110   ; qtot  0.000
   398     CG2R61     50    GP001     C6    398     0.000000    12.0110   ; qtot  0.000
   399     CG2R61     50    GP001     C7    399     0.000000    12.0110   ; qtot  0.000
   400     CG2R61     50    GP001     C8    400     0.000000    12.0110   ; qtot  0.000
   401     CG2R61     51    GP001     C1    401     0.000000    12.0110   ; qtot  0.000
   402     CG2R61     51    GP001     C2    402     0.000000    12.0110   ; qtot  0.000
   403     CG2R61     51    GP001     C3    403     0.000000    12.0110   ; qtot  0.000
   404     CG2R61     51    GP001     C4    404     0.000000    12.0110   ; qtot  0.000
   405     CG2R61     51    GP001     C5    405     0.000000    12.0110   ; qtot  0.000
   406     CG2R61     51    GP001     C6    406     0.000000    12.0110   ; qtot  0.000
   407     CG2R61     51    GP001     C7    407     0.000000    12.0110   ; qtot  0.000
   408     CG2R61     51    GP001     C8    408     0.000000    12.0110   ; qtot  0.000
   409     CG2R61     52    GP001     C1    409     0.000000    12.0110   ; qtot  0.000
   410     CG2R61     52    GP001     C2    410     0.000000    12.0110   ; qtot  0.000
   411     CG2R61     52    GP001     C3    411     0.000000    12.0110   ; qtot  0.000
   412     CG2R61     52    GP001     C4    412     0.000000    12.0110   ; qtot  0.000
   413     CG2R61     52    GP001     C5    413     0.000000    12.0110   ; qtot  0.000
   414     CG2R61     52    GP001     C6    414     0.000000    12.0110   ; qtot  0.000
   415     CG2R61     52    GP001     C7    415     0.000000    12.0110   ; qtot  0.000
   416     CG2R61     52    GP001     C8    416     0.000000    12.0110   ; qtot  0.000
   417     CG2R61     53    GP001     C1    417     0.000000    12.0110   ; qtot  0.000
   418     CG2R61     53    GP001     C2    418     0.000000    12.0110   ; qtot  0.000
   419     CG2R61     53    GP001     C3    419     0.000000    12.0110   ; qtot  0.000
   420     CG2R61     53    GP001     C4    420     0.000000    12.0110   ; qtot  0.000
   421     CG2R61     53    GP001     C5    421     0.000000    12.0110   ; qtot  0.000
   422     CG2R61     53    GP001     C6    422     0.000000    12.0110   ; qtot  0.000
   423     CG2R61     53    GP001     C7    423     0.000000    12.0110   ; qtot  0.000
   424     CG2R61     53    GP001     C8    424     0.000000    12.0110   ; qtot  0.000
   425     CG2R61     54    GP001     C1    425     0.000000    12.0110   ; qtot  0.000
   426     CG2R61     54    GP001     C2    426     0.000000    12.0110   ; qtot  0.000
   427     CG2R61     54    GP001     C3    427     0.000000    12.0110   ; qtot  0.000
   428     CG2R61     54    GP001     C4    428     0.000000    12.0110   ; qtot  0.000
   429     CG2R61     54    GP001     C5    429     0.000000    12.0110   ; qtot  0.000
   430     CG2R61     54    GP001     C6    430     0.000000    12.0110   ; qtot  0.000
   431     CG2R61     54    GP001     C7    431     0.000000    12.0110   ; qtot  0.000
   432     CG2R61     54    GP001     C8    432     0.000000    12.0110   ; qtot  0.000
   433     CG2R61     55    GP001     C1    433     0.000000    12.0110   ; qtot  0.000
   434     CG2R61     55    GP001     C2    434     0.000000    12.0110   ; qtot  0.000
   435     CG2R61     55    GP001     C3    435     0.000000    12.0110   ; qtot  0.000
   436     CG2R61     55    GP001     C4    436     0.000000    12.0110   ; qtot  0.000
   437     CG2R61     55    GP001     C5    437     0.000000    12.0110   ; qtot  0.000
   438     CG2R61     55    GP001     C6    438     0.000000    12.0110   ; qtot  0.000
   439     CG2R61     55    GP001     C7    439     0.000000    12.0110   ; qtot  0.000
   440     CG2R61     55    GP001     C8    440     0.000000    12.0110   ; qtot  0.000
   441     CG2R61     56    GP001     C1    441     0.000000    12.0110   ; qtot  0.000
   442     CG2R61     56    GP001     C2    442     0.000000    12.0110   ; qtot  0.000
   443     CG2R61     56    GP001     C3    443     0.000000    12.0110   ; qtot  0.000
   444     CG2R61     56    GP001     C4    444     0.000000    12.0110   ; qtot  0.000
   445     CG2R61     56    GP001     C5    445     0.000000    12.0110   ; qtot  0.000
   446     CG2R61     56    GP001     C6    446     0.000000    12.0110   ; qtot  0.000
   447     CG2R61     56    GP001     C7    447     0.000000    12.0110   ; qtot  0.000
   448     CG2R61     56    GP001     C8    448     0.000000    12.0110   ; qtot  0.000
   449     CG2R61     57    GP001     C1    449     0.000000    12.0110   ; qtot  0.000
   450     CG2R61     57    GP001     C2    450     0.000000    12.0110   ; qtot  0.000
   451     CG2R61     57    GP001     C3    451     0.000000    12.0110   ; qtot  0.000
   452     CG2R61     57    GP001     C4    452     0.000000    12.0110   ; qtot  0.000
   453     CG2R61     57    GP001     C5    453     0.000000    12.0110   ; qtot  0.000
   454     CG2R61     57    GP001     C6    454     0.000000    12.0110   ; qtot  0.000
   455     CG2R61     57    GP001     C7    455     0.000000    12.0110   ; qtot  0.000
   456     CG2R61     57    GP001     C8    456     0.000000    12.0110   ; qtot  0.000
   457     CG2R61     58    GP001     C1    457     0.000000    12.0110   ; qtot  0.000
   458     CG2R61     58    GP001     C2    458     0.000000    12.0110   ; qtot  0.000
   459     CG2R61     58    GP001     C3    459     0.000000    12.0110   ; qtot  0.000
   460     CG2R61     58    GP001     C4    460     0.000000    12.0110   ; qtot  0.000
   461     CG2R61     58    GP001     C5    461     0.000000    12.0110   ; qtot  0.000
   462     CG2R61     58    GP001     C6    462     0.000000    12.0110   ; qtot  0.000
   463     CG2R61     58    GP001     C7    463     0.000000    12.0110   ; qtot  0.000
   464     CG2R61     58    GP001     C8    464     0.000000    12.0110   ; qtot  0.000
   465     CG2R61     59    GP001     C1    465     0.000000    12.0110   ; qtot  0.000
   466     CG2R61     59    GP001     C2    466     0.000000    12.0110   ; qtot  0.000
   467     CG2R61     59    GP001     C3    467     0.000000    12.0110   ; qtot  0.000
   468     CG2R61     59    GP001     C4    468     0.000000    12.0110   ; qtot  0.000
   469     CG2R61     59    GP001     C5    469     0.000000    12.0110   ; qtot  0.000
   470     CG2R61     59    GP001     C6    470     0.000000    12.0110   ; qtot  0.000
   471     CG2R61     59    GP001     C7    471     0.000000    12.0110   ; qtot  0.000
   472     CG2R61     59    GP001     C8    472     0.000000    12.0110   ; qtot  0.000
   473     CG2R61     60    GP001     C1    473     0.000000    12.0110   ; qtot  0.000
   474     CG2R61     60    GP001     C2    474     0.000000    12.0110   ; qtot  0.000
   475     CG2R61     60    GP001     C3    475     0.000000    12.0110   ; qtot  0.000
   476     CG2R61     60    GP001     C4    476     0.000000    12.0110   ; qtot  0.000
   477     CG2R61     60    GP001     C5    477     0.000000    12.0110   ; qtot  0.000
   478     CG2R61     60    GP001     C6    478     0.000000    12.0110   ; qtot  0.000
   479     CG2R61     60    GP001     C7    479     0.000000    12.0110   ; qtot  0.000
   480     CG2R61     60    GP001     C8    480     0.000000    12.0110   ; qtot  0.000
   481     CG2R61     61    GP001     C1    481     0.000000    12.0110   ; qtot  0.000
   482     CG2R61     61    GP001     C2    482     0.000000    12.0110   ; qtot  0.000
   483     CG2R61     61    GP001     C3    483     0.000000    12.0110   ; qtot  0.000
   484     CG2R61     61    GP001     C4    484     0.000000    12.0110   ; qtot  0.000
   485     CG2R61     61    GP001     C5    485     0.000000    12.0110   ; qtot  0.000
   486     CG2R61     61    GP001     C6    486     0.000000    12.0110   ; qtot  0.000
   487     CG2R61     61    GP001     C7    487     0.000000    12.0110   ; qtot  0.000
   488     CG2R61     61    GP001     C8    488     0.000000    12.0110   ; qtot  0.000
   489     CG2R61     62    GP001     C1    489     0.000000    12.0110   ; qtot  0.000
   490     CG2R61     62    GP001     C2    490     0.000000    12.0110   ; qtot  0.000
   491     CG2R61     62    GP001     C3    491     0.000000    12.0110   ; qtot  0.000
   492     CG2R61     62    GP001     C4    492     0.000000    12.0110   ; qtot  0.000
   493     CG2R61     62    GP001     C5    493     0.000000    12.0110   ; qtot  0.000
   494     CG2R61     62    GP001     C6    494     0.000000    12.0110   ; qtot  0.000
   495     CG2R61     62    GP001     C7    495     0.000000    12.0110   ; qtot  0.000
   496     CG2R61     62    GP001     C8    496     0.000000    12.0110   ; qtot  0.000
   497     CG2R61     63    GP001     C1    497     0.000000    12.0110   ; qtot  0.000
   498     CG2R61     63    GP001     C2    498     0.000000    12.0110   ; qtot  0.000
   499     CG2R61     63    GP001     C3    499     0.000000    12.0110   ; qtot  0.000
   500     CG2R61     63    GP001     C4    500     0.000000    12.0110   ; qtot  0.000
   501     CG2R61     63    GP001     C5    501     0.000000    12.0110   ; qtot  0.000
   502     CG2R61     63    GP001     C6    502     0.000000    12.0110   ; qtot  0.000
   503     CG2R61     63    GP001     C7    503     0.000000    12.0110   ; qtot  0.000
   504     CG2R61     63    GP001     C8    504     0.000000    12.0110   ; qtot  0.000
   505     CG2R61     64    GP001     C1    505     0.000000    12.0110   ; qtot  0.000
   506     CG2R61     64    GP001     C2    506     0.000000    12.0110   ; qtot  0.000
   507     CG2R61     64    GP001     C3    507     0.000000    12.0110   ; qtot  0.000
   508     CG2R61     64    GP001     C4    508     0.000000    12.0110   ; qtot  0.000
   509     CG2R61     64    GP001     C5    509     0.000000    12.0110   ; qtot  0.000
   510     CG2R61     64    GP001     C6    510     0.000000    12.0110   ; qtot  0.000
   511     CG2R61     64    GP001     C7    511     0.000000    12.0110   ; qtot  0.000
   512     CG2R61     64    GP001     C8    512     0.000000    12.0110   ; qtot  0.000
   513     CG2R61     65    GP001     C1    513     0.000000    12.0110   ; qtot  0.000
   514     CG2R61     65    GP001     C2    514     0.000000    12.0110   ; qtot  0.000
   515     CG2R61     65    GP001     C3    515     0.000000    12.0110   ; qtot  0.000
   516     CG2R61     65    GP001     C4    516     0.000000    12.0110   ; qtot  0.000
   517     CG2R61     65    GP001     C5    517     0.000000    12.0110   ; qtot  0.000
   518     CG2R61     65    GP001     C6    518     0.000000    12.0110   ; qtot  0.000
   519     CG2R61     65    GP001     C7    519     0.000000    12.0110   ; qtot  0.000
   520     CG2R61     65    GP001     C8    520     0.000000    12.0110   ; qtot  0.000
   521     CG2R61     66    GP001     C1    521     0.000000    12.0110   ; qtot  0.000
   522     CG2R61     66    GP001     C2    522     0.000000    12.0110   ; qtot  0.000
   523     CG2R61     66    GP001     C3    523     0.000000    12.0110   ; qtot  0.000
   524     CG2R61     66    GP001     C4    524     0.000000    12.0110   ; qtot  0.000
   525     CG2R61     66    GP001     C5    525     0.000000    12.0110   ; qtot  0.000
   526     CG2R61     66    GP001     C6    526     0.000000    12.0110   ; qtot  0.000
   527     CG2R61     66    GP001     C7    527     0.000000    12.0110   ; qtot  0.000
   528     CG2R61     66    GP001     C8    528     0.000000    12.0110   ; qtot  0.000
   529     CG2R61     67    GP001     C1    529     0.000000    12.0110   ; qtot  0.000
   530     CG2R61     67    GP001     C2    530     0.000000    12.0110   ; qtot  0.000
   531     CG2R61     67    GP001     C3    531     0.000000    12.0110   ; qtot  0.000
   532     CG2R61     67    GP001     C4    532     0.000000    12.0110   ; qtot  0.000
   533     CG2R61     67    GP001     C5    533     0.000000    12.0110   ; qtot  0.000
   534     CG2R61     67    GP001     C6    534     0.000000    12.0110   ; qtot  0.000
   535     CG2R61     67    GP001     C7    535     0.000000    12.0110   ; qtot  0.000
   536     CG2R61     67    GP001     C8    536     0.000000    12.0110   ; qtot  0.000
   537     CG2R61     68    GP001     C1    537     0.000000    12.0110   ; qtot  0.000
   538     CG2R61     68    GP001     C2    538     0.000000    12.0110   ; qtot  0.000
   539     CG2R61     68    GP001     C3    539     0.000000    12.0110   ; qtot  0.000
   540     CG2R61     68    GP001     C4    540     0.000000    12.0110   ; qtot  0.000
   541     CG2R61     68    GP001     C5    541     0.000000    12.0110   ; qtot  0.000
   542     CG2R61     68    GP001     C6    542     0.000000    12.0110   ; qtot  0.000
   543     CG2R61     68    GP001     C7    543     0.000000    12.0110   ; qtot  0.000
   544     CG2R61     68    GP001     C8    544     0.000000    12.0110   ; qtot  0.000
   545     CG2R61     69    GP001     C1    545     0.000000    12.0110   ; qtot  0.000
   546     CG2R61     69    GP001     C2    546     0.000000    12.0110   ; qtot  0.000
   547     CG2R61     69    GP001     C3    547     0.000000    12.0110   ; qtot  0.000
   548     CG2R61     69    GP001     C4    548     0.000000    12.0110   ; qtot  0.000
   549     CG2R61     69    GP001     C5    549     0.000000    12.0110   ; qtot  0.000
   550     CG2R61     69    GP001     C6    550     0.000000    12.0110   ; qtot  0.000
   551     CG2R61     69    GP001     C7    551     0.000000    12.0110   ; qtot  0.000
   552     CG2R61     69    GP001     C8    552     0.000000    12.0110   ; qtot  0.000
   553     CG2R61     70    GP001     C1    553     0.000000    12.0110   ; qtot  0.000
   554     CG2R61     70    GP001     C2    554     0.000000    12.0110   ; qtot  0.000
   555     CG2R61     70    GP001     C3    555     0.000000    12.0110   ; qtot  0.000
   556     CG2R61     70    GP001     C4    556     0.000000    12.0110   ; qtot  0.000
   557     CG2R61     70    GP001     C5    557     0.000000    12.0110   ; qtot  0.000
   558     CG2R61     70    GP001     C6    558     0.000000    12.0110   ; qtot  0.000
   559     CG2R61     70    GP001     C7    559     0.000000    12.0110   ; qtot  0.000
   560     CG2R61     70    GP001     C8    560     0.000000    12.0110   ; qtot  0.000
   561     CG2R61     71    GP001     C1    561     0.000000    12.0110   ; qtot  0.000
   562     CG2R61     71    GP001     C2    562     0.000000    12.0110   ; qtot  0.000
   563     CG2R61     71    GP001     C3    563     0.000000    12.0110   ; qtot  0.000
   564     CG2R61     71    GP001     C4    564     0.000000    12.0110   ; qtot  0.000
   565     CG2R61     71    GP001     C5    565     0.000000    12.0110   ; qtot  0.000
   566     CG2R61     71    GP001     C6    566     0.000000    12.0110   ; qtot  0.000
   567     CG2R61     71    GP001     C7    567     0.000000    12.0110   ; qtot  0.000
   568     CG2R61     71    GP001     C8    568     0.000000    12.0110   ; qtot  0.000
   569     CG2R61     72    GP001     C1    569     0.000000    12.0110   ; qtot  0.000
   570     CG2R61     72    GP001     C2    570     0.000000    12.0110   ; qtot  0.000
   571     CG2R61     72    GP001     C3    571     0.000000    12.0110   ; qtot  0.000
   572     CG2R61     72    GP001     C4    572     0.000000    12.0110   ; qtot  0.000
   573     CG2R61     72    GP001     C5    573     0.000000    12.0110   ; qtot  0.000
   574     CG2R61     72    GP001     C6    574     0.000000    12.0110   ; qtot  0.000
   575     CG2R61     72    GP001     C7    575     0.000000    12.0110   ; qtot  0.000
   576     CG2R61     72    GP001     C8    576     0.000000    12.0110   ; qtot  0.000
   577     CG2R61     73    GP001     C1    577     0.000000    12.0110   ; qtot  0.000
   578     CG2R61     73    GP001     C2    578     0.000000    12.0110   ; qtot  0.000
   579     CG2R61     73    GP001     C3    579     0.000000    12.0110   ; qtot  0.000
   580     CG2R61     73    GP001     C4    580     0.000000    12.0110   ; qtot  0.000
   581     CG2R61     73    GP001     C5    581     0.000000    12.0110   ; qtot  0.000
   582     CG2R61     73    GP001     C6    582     0.000000    12.0110   ; qtot  0.000
   583     CG2R61     73    GP001     C7    583     0.000000    12.0110   ; qtot  0.000
   584     CG2R61     73    GP001     C8    584     0.000000    12.0110   ; qtot  0.000
   585     CG2R61     74    GP001     C1    585     0.000000    12.0110   ; qtot  0.000
   586     CG2R61     74    GP001     C2    586     0.000000    12.0110   ; qtot  0.000
   587     CG2R61     74    GP001     C3    587     0.000000    12.0110   ; qtot  0.000
   588     CG2R61     74    GP001     C4    588     0.000000    12.0110   ; qtot  0.000
   589     CG2R61     74    GP001     C5    589     0.000000    12.0110   ; qtot  0.000
   590     CG2R61     74    GP001     C6    590     0.000000    12.0110   ; qtot  0.000
   591     CG2R61     74    GP001     C7    591     0.000000    12.0110   ; qtot  0.000
   592     CG2R61     74    GP001     C8    592     0.000000    12.0110   ; qtot  0.000
   593     CG2R61     75    GP001     C1    593     0.000000    12.0110   ; qtot  0.000
   594     CG2R61     75    GP001     C2    594     0.000000    12.0110   ; qtot  0.000
   595     CG2R61     75    GP001     C3    595     0.000000    12.0110   ; qtot  0.000
   596     CG2R61     75    GP001     C4    596     0.000000    12.0110   ; qtot  0.000
   597     CG2R61     75    GP001     C5    597     0.000000    12.0110   ; qtot  0.000
   598     CG2R61     75    GP001     C6    598     0.000000    12.0110   ; qtot  0.000
   599     CG2R61     75    GP001     C7    599     0.000000    12.0110   ; qtot  0.000
   600     CG2R61     75    GP001     C8    600     0.000000    12.0110   ; qtot  0.000
   601     CG2R61     76    GP001     C1    601     0.000000    12.0110   ; qtot  0.000
   602     CG2R61     76    GP001     C2    602     0.000000    12.0110   ; qtot  0.000
   603     CG2R61     76    GP001     C3    603     0.000000    12.0110   ; qtot  0.000
   604     CG2R61     76    GP001     C4    604     0.000000    12.0110   ; qtot  0.000
   605     CG2R61     76    GP001     C5    605     0.000000    12.0110   ; qtot  0.000
   606     CG2R61     76    GP001     C6    606     0.000000    12.0110   ; qtot  0.000
   607     CG2R61     76    GP001     C7    607     0.000000    12.0110   ; qtot  0.000
   608     CG2R61     76    GP001     C8    608     0.000000    12.0110   ; qtot  0.000
   609     CG2R61     77    GP001     C1    609     0.000000    12.0110   ; qtot  0.000
   610     CG2R61     77    GP001     C2    610     0.000000    12.0110   ; qtot  0.000
   611     CG2R61     77    GP001     C3    611     0.000000    12.0110   ; qtot  0.000
   612     CG2R61     77    GP001     C4    612     0.000000    12.0110   ; qtot  0.000
   613     CG2R61     77    GP001     C5    613     0.000000    12.0110   ; qtot  0.000
   614     CG2R61     77    GP001     C6    614     0.000000    12.0110   ; qtot  0.000
   615     CG2R61     77    GP001     C7    615     0.000000    12.0110   ; qtot  0.000
   616     CG2R61     77    GP001     C8    616     0.000000    12.0110   ; qtot  0.000
   617     CG2R61     78    GP001     C1    617     0.000000    12.0110   ; qtot  0.000
   618     CG2R61     78    GP001     C2    618     0.000000    12.0110   ; qtot  0.000
   619     CG2R61     78    GP001     C3    619     0.000000    12.0110   ; qtot  0.000
   620     CG2R61     78    GP001     C4    620     0.000000    12.0110   ; qtot  0.000
   621     CG2R61     78    GP001     C5    621     0.000000    12.0110   ; qtot  0.000
   622     CG2R61     78    GP001     C6    622     0.000000    12.0110   ; qtot  0.000
   623     CG2R61     78    GP001     C7    623     0.000000    12.0110   ; qtot  0.000
   624     CG2R61     78    GP001     C8    624     0.000000    12.0110   ; qtot  0.000
   625     CG2R61     79    GP001     C1    625     0.000000    12.0110   ; qtot  0.000
   626     CG2R61     79    GP001     C2    626     0.000000    12.0110   ; qtot  0.000
   627     CG2R61     79    GP001     C3    627     0.000000    12.0110   ; qtot  0.000
   628     CG2R61     79    GP001     C4    628     0.000000    12.0110   ; qtot  0.000
   629     CG2R61     79    GP001     C5    629     0.000000    12.0110   ; qtot  0.000
   630     CG2R61     79    GP001     C6    630     0.000000    12.0110   ; qtot  0.000
   631     CG2R61     79    GP001     C7    631     0.000000    12.0110   ; qtot  0.000
   632     CG2R61     79    GP001     C8    632     0.000000    12.0110   ; qtot  0.000
   633     CG2R61     80    GP001     C1    633     0.000000    12.0110   ; qtot  0.000
   634     CG2R61     80    GP001     C2    634     0.000000    12.0110   ; qtot  0.000
   635     CG2R61     80    GP001     C3    635     0.000000    12.0110   ; qtot  0.000
   636     CG2R61     80    GP001     C4    636     0.000000    12.0110   ; qtot  0.000
   637     CG2R61     80    GP001     C5    637     0.000000    12.0110   ; qtot  0.000
   638     CG2R61     80    GP001     C6    638     0.000000    12.0110   ; qtot  0.000
   639     CG2R61     80    GP001     C7    639     0.000000    12.0110   ; qtot  0.000
   640     CG2R61     80    GP001     C8    640     0.000000    12.0110   ; qtot  0.000
   641     CG2R61     81    GP001     C1    641     0.000000    12.0110   ; qtot  0.000
   642     CG2R61     81    GP001     C2    642     0.000000    12.0110   ; qtot  0.000
   643     CG2R61     81    GP001     C3    643     0.000000    12.0110   ; qtot  0.000
   644     CG2R61     81    GP001     C4    644     0.000000    12.0110   ; qtot  0.000
   645     CG2R61     81    GP001     C5    645     0.000000    12.0110   ; qtot  0.000
   646     CG2R61     81    GP001     C6    646     0.000000    12.0110   ; qtot  0.000
   647     CG2R61     81    GP001     C7    647     0.000000    12.0110   ; qtot  0.000
   648     CG2R61     81    GP001     C8    648     0.000000    12.0110   ; qtot  0.000
   649     CG2R61     82    GP001     C1    649     0.000000    12.0110   ; qtot  0.000
   650     CG2R61     82    GP001     C2    650     0.000000    12.0110   ; qtot  0.000
   651     CG2R61     82    GP001     C3    651     0.000000    12.0110   ; qtot  0.000
   652     CG2R61     82    GP001     C4    652     0.000000    12.0110   ; qtot  0.000
   653     CG2R61     82    GP001     C5    653     0.000000    12.0110   ; qtot  0.000
   654     CG2R61     82    GP001     C6    654     0.000000    12.0110   ; qtot  0.000
   655     CG2R61     82    GP001     C7    655     0.000000    12.0110   ; qtot  0.000
   656     CG2R61     82    GP001     C8    656     0.000000    12.0110   ; qtot  0.000
   657     CG2R61     83    GP001     C1    657     0.000000    12.0110   ; qtot  0.000
   658     CG2R61     83    GP001     C2    658     0.000000    12.0110   ; qtot  0.000
   659     CG2R61     83    GP001     C3    659     0.000000    12.0110   ; qtot  0.000
   660     CG2R61     83    GP001     C4    660     0.000000    12.0110   ; qtot  0.000
   661     CG2R61     83    GP001     C5    661     0.000000    12.0110   ; qtot  0.000
   662     CG2R61     83    GP001     C6    662     0.000000    12.0110   ; qtot  0.000
   663     CG2R61     83    GP001     C7    663     0.000000    12.0110   ; qtot  0.000
   664     CG2R61     83    GP001     C8    664     0.000000    12.0110   ; qtot  0.000
   665     CG2R61     84    GP001     C1    665     0.000000    12.0110   ; qtot  0.000
   666     CG2R61     84    GP001     C2    666     0.000000    12.0110   ; qtot  0.000
   667     CG2R61     84    GP001     C3    667     0.000000    12.0110   ; qtot  0.000
   668     CG2R61     84    GP001     C4    668     0.000000    12.0110   ; qtot  0.000
   669     CG2R61     84    GP001     C5    669     0.000000    12.0110   ; qtot  0.000
   670     CG2R61     84    GP001     C6    670     0.000000    12.0110   ; qtot  0.000
   671     CG2R61     84    GP001     C7    671     0.000000    12.0110   ; qtot  0.000
   672     CG2R61     84    GP001     C8    672     0.000000    12.0110   ; qtot  0.000
   673     CG2R61     85    GP001     C1    673     0.000000    12.0110   ; qtot  0.000
   674     CG2R61     85    GP001     C2    674     0.000000    12.0110   ; qtot  0.000
   675     CG2R61     85    GP001     C3    675     0.000000    12.0110   ; qtot  0.000
   676     CG2R61     85    GP001     C4    676     0.000000    12.0110   ; qtot  0.000
   677     CG2R61     85    GP001     C5    677     0.000000    12.0110   ; qtot  0.000
   678     CG2R61     85    GP001     C6    678     0.000000    12.0110   ; qtot  0.000
   679     CG2R61     85    GP001     C7    679     0.000000    12.0110   ; qtot  0.000
   680     CG2R61     85    GP001     C8    680     0.000000    12.0110   ; qtot  0.000
   681     CG2R61     86    GP001     C1    681     0.000000    12.0110   ; qtot  0.000
   682     CG2R61     86    GP001     C2    682     0.000000    12.0110   ; qtot  0.000
   683     CG2R61     86    GP001     C3    683     0.000000    12.0110   ; qtot  0.000
   684     CG2R61     86    GP001     C4    684     0.000000    12.0110   ; qtot  0.000
   685     CG2R61     86    GP001     C5    685     0.000000    12.0110   ; qtot  0.000
   686     CG2R61     86    GP001     C6    686     0.000000    12.0110   ; qtot  0.000
   687     CG2R61     86    GP001     C7    687     0.000000    12.0110   ; qtot  0.000
   688     CG2R61     86    GP001     C8    688     0.000000    12.0110   ; qtot  0.000
   689     CG2R61     87    GP001     C1    689     0.000000    12.0110   ; qtot  0.000
   690     CG2R61     87    GP001     C2    690     0.000000    12.0110   ; qtot  0.000
   691     CG2R61     87    GP001     C3    691     0.000000    12.0110   ; qtot  0.000
   692     CG2R61     87    GP001     C4    692     0.000000    12.0110   ; qtot  0.000
   693     CG2R61     87    GP001     C5    693     0.000000    12.0110   ; qtot  0.000
   694     CG2R61     87    GP001     C6    694     0.000000    12.0110   ; qtot  0.000
   695     CG2R61     87    GP001     C7    695     0.000000    12.0110   ; qtot  0.000
   696     CG2R61     87    GP001     C8    696     0.000000    12.0110   ; qtot  0.000
   697     CG2R61     88    GP001     C1    697     0.000000    12.0110   ; qtot  0.000
   698     CG2R61     88    GP001     C2    698     0.000000    12.0110   ; qtot  0.000
   699     CG2R61     88    GP001     C3    699     0.000000    12.0110   ; qtot  0.000
   700     CG2R61     88    GP001     C4    700     0.000000    12.0110   ; qtot  0.000
   701     CG2R61     88    GP001     C5    701     0.000000    12.0110   ; qtot  0.000
   702     CG2R61     88    GP001     C6    702     0.000000    12.0110   ; qtot  0.000
   703     CG2R61     88    GP001     C7    703     0.000000    12.0110   ; qtot  0.000
   704     CG2R61     88    GP001     C8    704     0.000000    12.0110   ; qtot  0.000
   705     CG2R61     89    GP001     C1    705     0.000000    12.0110   ; qtot  0.000
   706     CG2R61     89    GP001     C2    706     0.000000    12.0110   ; qtot  0.000
   707     CG2R61     89    GP001     C3    707     0.000000    12.0110   ; qtot  0.000
   708     CG2R61     89    GP001     C4    708     0.000000    12.0110   ; qtot  0.000
   709     CG2R61     89    GP001     C5    709     0.000000    12.0110   ; qtot  0.000
   710     CG2R61     89    GP001     C6    710     0.000000    12.0110   ; qtot  0.000
   711     CG2R61     89    GP001     C7    711     0.000000    12.0110   ; qtot  0.000
   712     CG2R61     89    GP001     C8    712     0.000000    12.0110   ; qtot  0.000
   713     CG2R61     90    GP001     C1    713     0.000000    12.0110   ; qtot  0.000
   714     CG2R61     90    GP001     C2    714     0.000000    12.0110   ; qtot  0.000
   715     CG2R61     90    GP001     C3    715     0.000000    12.0110   ; qtot  0.000
   716     CG2R61     90    GP001     C4    716     0.000000    12.0110   ; qtot  0.000
   717     CG2R61     90    GP001     C5    717     0.000000    12.0110   ; qtot  0.000
   718     CG2R61     90    GP001     C6    718     0.000000    12.0110   ; qtot  0.000
   719     CG2R61     90    GP001     C7    719     0.000000    12.0110   ; qtot  0.000
   720     CG2R61     90    GP001     C8    720     0.000000    12.0110   ; qtot  0.000
   721     CG2R61     91    GP001     C1    721     0.000000    12.0110   ; qtot  0.000
   722     CG2R61     91    GP001     C2    722     0.000000    12.0110   ; qtot  0.000
   723     CG2R61     91    GP001     C3    723     0.000000    12.0110   ; qtot  0.000
   724     CG2R61     91    GP001     C4    724     0.000000    12.0110   ; qtot  0.000
   725     CG2R61     91    GP001     C5    725     0.000000    12.0110   ; qtot  0.000
   726     CG2R61     91    GP001     C6    726     0.000000    12.0110   ; qtot  0.000
   727     CG2R61     91    GP001     C7    727     0.000000    12.0110   ; qtot  0.000
   728     CG2R61     91    GP001     C8    728     0.000000    12.0110   ; qtot  0.000
   729     CG2R61     92    GP001     C1    729     0.000000    12.0110   ; qtot  0.000
   730     CG2R61     92    GP001     C2    730     0.000000    12.0110   ; qtot  0.000
   731     CG2R61     92    GP001     C3    731     0.000000    12.0110   ; qtot  0.000
   732     CG2R61     92    GP001     C4    732     0.000000    12.0110   ; qtot  0.000
   733     CG2R61     92    GP001     C5    733     0.000000    12.0110   ; qtot  0.000
   734     CG2R61     92    GP001     C6    734     0.000000    12.0110   ; qtot  0.000
   735     CG2R61     92    GP001     C7    735     0.000000    12.0110   ; qtot  0.000
   736     CG2R61     92    GP001     C8    736     0.000000    12.0110   ; qtot  0.000
   737     CG2R61     93    GP001     C1    737     0.000000    12.0110   ; qtot  0.000
   738     CG2R61     93    GP001     C2    738     0.000000    12.0110   ; qtot  0.000
   739     CG2R61     93    GP001     C3    739     0.000000    12.0110   ; qtot  0.000
   740     CG2R61     93    GP001     C4    740     0.000000    12.0110   ; qtot  0.000
   741     CG2R61     93    GP001     C5    741     0.000000    12.0110   ; qtot  0.000
   742     CG2R61     93    GP001     C6    742     0.000000    12.0110   ; qtot  0.000
   743     CG2R61     93    GP001     C7    743     0.000000    12.0110   ; qtot  0.000
   744     CG2R61     93    GP001     C8    744     0.000000    12.0110   ; qtot  0.000
   745     CG2R61     94    GP001     C1    745     0.000000    12.0110   ; qtot  0.000
   746     CG2R61     94    GP001     C2    746     0.000000    12.0110   ; qtot  0.000
   747     CG2R61     94    GP001     C3    747     0.000000    12.0110   ; qtot  0.000
   748     CG2R61     94    GP001     C4    748     0.000000    12.0110   ; qtot  0.000
   749     CG2R61     94    GP001     C5    749     0.000000    12.0110   ; qtot  0.000
   750     CG2R61     94    GP001     C6    750     0.000000    12.0110   ; qtot  0.000
   751     CG2R61     94    GP001     C7    751     0.000000    12.0110   ; qtot  0.000
   752     CG2R61     94    GP001     C8    752     0.000000    12.0110   ; qtot  0.000
   753     CG2R61     95    GP001     C1    753     0.000000    12.0110   ; qtot  0.000
   754     CG2R61     95    GP001     C2    754     0.000000    12.0110   ; qtot  0.000
   755     CG2R61     95    GP001     C3    755     0.000000    12.0110   ; qtot  0.000
   756     CG2R61     95    GP001     C4    756     0.000000    12.0110   ; qtot  0.000
   757     CG2R61     95    GP001     C5    757     0.000000    12.0110   ; qtot  0.000
   758     CG2R61     95    GP001     C6    758     0.000000    12.0110   ; qtot  0.000
   759     CG2R61     95    GP001     C7    759     0.000000    12.0110   ; qtot  0.000
   760     CG2R61     95    GP001     C8    760     0.000000    12.0110   ; qtot  0.000
   761     CG2R61     96    GP001     C1    761     0.000000    12.0110   ; qtot  0.000
   762     CG2R61     96    GP001     C2    762     0.000000    12.0110   ; qtot  0.000
   763     CG2R61     96    GP001     C3    763     0.000000    12.0110   ; qtot  0.000
   764     CG2R61     96    GP001     C4    764     0.000000    12.0110   ; qtot  0.000
   765     CG2R61     96    GP001     C5    765     0.000000    12.0110   ; qtot  0.000
   766     CG2R61     96    GP001     C6    766     0.000000    12.0110   ; qtot  0.000
   767     CG2R61     96    GP001     C7    767     0.000000    12.0110   ; qtot  0.000
   768     CG2R61     96    GP001     C8    768     0.000000    12.0110   ; qtot  0.000
   769     CG2R61     97    GP001     C1    769     0.000000    12.0110   ; qtot  0.000
   770     CG2R61     97    GP001     C2    770     0.000000    12.0110   ; qtot  0.000
   771     CG2R61     97    GP001     C3    771     0.000000    12.0110   ; qtot  0.000
   772     CG2R61     97    GP001     C4    772     0.000000    12.0110   ; qtot  0.000
   773     CG2R61     97    GP001     C5    773     0.000000    12.0110   ; qtot  0.000
   774     CG2R61     97    GP001     C6    774     0.000000    12.0110   ; qtot  0.000
   775     CG2R61     97    GP001     C7    775     0.000000    12.0110   ; qtot  0.000
   776     CG2R61     97    GP001     C8    776     0.000000    12.0110   ; qtot  0.000
   777     CG2R61     98    GP001     C1    777     0.000000    12.0110   ; qtot  0.000
   778     CG2R61     98    GP001     C2    778     0.000000    12.0110   ; qtot  0.000
   779     CG2R61     98    GP001     C3    779     0.000000    12.0110   ; qtot  0.000
   780     CG2R61     98    GP001     C4    780     0.000000    12.0110   ; qtot  0.000
   781     CG2R61     98    GP001     C5    781     0.000000    12.0110   ; qtot  0.000
   782     CG2R61     98    GP001     C6    782     0.000000    12.0110   ; qtot  0.000
   783     CG2R61     98    GP001     C7    783     0.000000    12.0110   ; qtot  0.000
   784     CG2R61     98    GP001     C8    784     0.000000    12.0110   ; qtot  0.000
   785     CG2R61     99    GP001     C1    785     0.000000    12.0110   ; qtot  0.000
   786     CG2R61     99    GP001     C2    786     0.000000    12.0110   ; qtot  0.000
   787     CG2R61     99    GP001     C3    787     0.000000    12.0110   ; qtot  0.000
   788     CG2R61     99    GP001     C4    788     0.000000    12.0110   ; qtot  0.000
   789     CG2R61     99    GP001     C5    789     0.000000    12.0110   ; qtot  0.000
   790     CG2R61     99    GP001     C6    790     0.000000    12.0110   ; qtot  0.000
   791     CG2R61     99    GP001     C7    791     0.000000    12.0110   ; qtot  0.000
   792     CG2R61     99    GP001     C8    792     0.000000    12.0110   ; qtot  0.000
   793     CG2R61    100    GP001     C1    793     0.000000    12.0110   ; qtot  0.000
   794     CG2R61    100    GP001     C2    794     0.000000    12.0110   ; qtot  0.000
   795     CG2R61    100    GP001     C3    795     0.000000    12.0110   ; qtot  0.000
   796     CG2R61    100    GP001     C4    796     0.000000    12.0110   ; qtot  0.000
   797     CG2R61    100    GP001     C5    797     0.000000    12.0110   ; qtot  0.000
   798     CG2R61    100    GP001     C6    798     0.000000    12.0110   ; qtot  0.000
   799     CG2R61    100    GP001     C7    799     0.000000    12.0110   ; qtot  0.000
   800     CG2R61    100    GP001     C8    800     0.000000    12.0110   ; qtot  0.000
   801     CG2R61    101    GP001     C1    801     0.000000    12.0110   ; qtot  0.000
   802     CG2R61    101    GP001     C2    802     0.000000    12.0110   ; qtot  0.000
   803     CG2R61    101    GP001     C3    803     0.000000    12.0110   ; qtot  0.000
   804     CG2R61    101    GP001     C4    804     0.000000    12.0110   ; qtot  0.000
   805     CG2R61    101    GP001     C5    805     0.000000    12.0110   ; qtot  0.000
   806     CG2R61    101    GP001     C6    806     0.000000    12.0110   ; qtot  0.000
   807     CG2R61    101    GP001     C7    807     0.000000    12.0110   ; qtot  0.000
   808     CG2R61    101    GP001     C8    808     0.000000    12.0110   ; qtot  0.000
   809     CG2R61    102    GP001     C1    809     0.000000    12.0110   ; qtot  0.000
   810     CG2R61    102    GP001     C2    810     0.000000    12.0110   ; qtot  0.000
   811     CG2R61    102    GP001     C3    811     0.000000    12.0110   ; qtot  0.000
   812     CG2R61    102    GP001     C4    812     0.000000    12.0110   ; qtot  0.000
   813     CG2R61    102    GP001     C5    813     0.000000    12.0110   ; qtot  0.000
   814     CG2R61    102    GP001     C6    814     0.000000    12.0110   ; qtot  0.000
   815     CG2R61    102    GP001     C7    815     0.000000    12.0110   ; qtot  0.000
   816     CG2R61    102    GP001     C8    816     0.000000    12.0110   ; qtot  0.000
   817     CG2R61    103    GP001     C1    817     0.000000    12.0110   ; qtot  0.000
   818     CG2R61    103    GP001     C2    818     0.000000    12.0110   ; qtot  0.000
   819     CG2R61    103    GP001     C3    819     0.000000    12.0110   ; qtot  0.000
   820     CG2R61    103    GP001     C4    820     0.000000    12.0110   ; qtot  0.000
   821     CG2R61    103    GP001     C5    821     0.000000    12.0110   ; qtot  0.000
   822     CG2R61    103    GP001     C6    822     0.000000    12.0110   ; qtot  0.000
   823     CG2R61    103    GP001     C7    823     0.000000    12.0110   ; qtot  0.000
   824     CG2R61    103    GP001     C8    824     0.000000    12.0110   ; qtot  0.000
   825     CG2R61    104    GP001     C1    825     0.000000    12.0110   ; qtot  0.000
   826     CG2R61    104    GP001     C2    826     0.000000    12.0110   ; qtot  0.000
   827     CG2R61    104    GP001     C3    827     0.000000    12.0110   ; qtot  0.000
   828     CG2R61    104    GP001     C4    828     0.000000    12.0110   ; qtot  0.000
   829     CG2R61    104    GP001     C5    829     0.000000    12.0110   ; qtot  0.000
   830     CG2R61    104    GP001     C6    830     0.000000    12.0110   ; qtot  0.000
   831     CG2R61    104    GP001     C7    831     0.000000    12.0110   ; qtot  0.000
   832     CG2R61    104    GP001     C8    832     0.000000    12.0110   ; qtot  0.000
   833     CG2R61    105    GP001     C1    833     0.000000    12.0110   ; qtot  0.000
   834     CG2R61    105    GP001     C2    834     0.000000    12.0110   ; qtot  0.000
   835     CG2R61    105    GP001     C3    835     0.000000    12.0110   ; qtot  0.000
   836     CG2R61    105    GP001     C4    836     0.000000    12.0110   ; qtot  0.000
   837     CG2R61    105    GP001     C5    837     0.000000    12.0110   ; qtot  0.000
   838     CG2R61    105    GP001     C6    838     0.000000    12.0110   ; qtot  0.000
   839     CG2R61    105    GP001     C7    839     0.000000    12.0110   ; qtot  0.000
   840     CG2R61    105    GP001     C8    840     0.000000    12.0110   ; qtot  0.000
   841     CG2R61    106    GP001     C1    841     0.000000    12.0110   ; qtot  0.000
   842     CG2R61    106    GP001     C2    842     0.000000    12.0110   ; qtot  0.000
   843     CG2R61    106    GP001     C3    843     0.000000    12.0110   ; qtot  0.000
   844     CG2R61    106    GP001     C4    844     0.000000    12.0110   ; qtot  0.000
   845     CG2R61    106    GP001     C5    845     0.000000    12.0110   ; qtot  0.000
   846     CG2R61    106    GP001     C6    846     0.000000    12.0110   ; qtot  0.000
   847     CG2R61    106    GP001     C7    847     0.000000    12.0110   ; qtot  0.000
   848     CG2R61    106    GP001     C8    848     0.000000    12.0110   ; qtot  0.000
   849     CG2R61    107    GP001     C1    849     0.000000    12.0110   ; qtot  0.000
   850     CG2R61    107    GP001     C2    850     0.000000    12.0110   ; qtot  0.000
   851     CG2R61    107    GP001     C3    851     0.000000    12.0110   ; qtot  0.000
   852     CG2R61    107    GP001     C4    852     0.000000    12.0110   ; qtot  0.000
   853     CG2R61    107    GP001     C5    853     0.000000    12.0110   ; qtot  0.000
   854     CG2R61    107    GP001     C6    854     0.000000    12.0110   ; qtot  0.000
   855     CG2R61    107    GP001     C7    855     0.000000    12.0110   ; qtot  0.000
   856     CG2R61    107    GP001     C8    856     0.000000    12.0110   ; qtot  0.000
   857     CG2R61    108    GP001     C1    857     0.000000    12.0110   ; qtot  0.000
   858     CG2R61    108    GP001     C2    858     0.000000    12.0110   ; qtot  0.000
   859     CG2R61    108    GP001     C3    859     0.000000    12.0110   ; qtot  0.000
   860     CG2R61    108    GP001     C4    860     0.000000    12.0110   ; qtot  0.000
   861     CG2R61    108    GP001     C5    861     0.000000    12.0110   ; qtot  0.000
   862     CG2R61    108    GP001     C6    862     0.000000    12.0110   ; qtot  0.000
   863     CG2R61    108    GP001     C7    863     0.000000    12.0110   ; qtot  0.000
   864     CG2R61    108    GP001     C8    864     0.000000    12.0110   ; qtot  0.000
   865     CG2R61    109    GP001     C1    865     0.000000    12.0110   ; qtot  0.000
   866     CG2R61    109    GP001     C2    866     0.000000    12.0110   ; qtot  0.000
   867     CG2R61    109    GP001     C3    867     0.000000    12.0110   ; qtot  0.000
   868     CG2R61    109    GP001     C4    868     0.000000    12.0110   ; qtot  0.000
   869     CG2R61    109    GP001     C5    869     0.000000    12.0110   ; qtot  0.000
   870     CG2R61    109    GP001     C6    870     0.000000    12.0110   ; qtot  0.000
   871     CG2R61    109    GP001     C7    871     0.000000    12.0110   ; qtot  0.000
   872     CG2R61    109    GP001     C8    872     0.000000    12.0110   ; qtot  0.000
   873     CG2R61    110    GP001     C1    873     0.000000    12.0110   ; qtot  0.000
   874     CG2R61    110    GP001     C2    874     0.000000    12.0110   ; qtot  0.000
   875     CG2R61    110    GP001     C3    875     0.000000    12.0110   ; qtot  0.000
   876     CG2R61    110    GP001     C4    876     0.000000    12.0110   ; qtot  0.000
   877     CG2R61    110    GP001     C5    877     0.000000    12.0110   ; qtot  0.000
   878     CG2R61    110    GP001     C6    878     0.000000    12.0110   ; qtot  0.000
   879     CG2R61    110    GP001     C7    879     0.000000    12.0110   ; qtot  0.000
   880     CG2R61    110    GP001     C8    880     0.000000    12.0110   ; qtot  0.000
   881     CG2R61    111    GP001     C1    881     0.000000    12.0110   ; qtot  0.000
   882     CG2R61    111    GP001     C2    882     0.000000    12.0110   ; qtot  0.000
   883     CG2R61    111    GP001     C3    883     0.000000    12.0110   ; qtot  0.000
   884     CG2R61    111    GP001     C4    884     0.000000    12.0110   ; qtot  0.000
   885     CG2R61    111    GP001     C5    885     0.000000    12.0110   ; qtot  0.000
   886     CG2R61    111    GP001     C6    886     0.000000    12.0110   ; qtot  0.000
   887     CG2R61    111    GP001     C7    887     0.000000    12.0110   ; qtot  0.000
   888     CG2R61    111    GP001     C8    888     0.000000    12.0110   ; qtot  0.000
   889     CG2R61    112    GP001     C1    889     0.000000    12.0110   ; qtot  0.000
   890     CG2R61    112    GP001     C2    890     0.000000    12.0110   ; qtot  0.000
   891     CG2R61    112    GP001     C3    891     0.000000    12.0110   ; qtot  0.000
   892     CG2R61    112    GP001     C4    892     0.000000    12.0110   ; qtot  0.000
   893     CG2R61    112    GP001     C5    893     0.000000    12.0110   ; qtot  0.000
   894     CG2R61    112    GP001     C6    894     0.000000    12.0110   ; qtot  0.000
   895     CG2R61    112    GP001     C7    895     0.000000    12.0110   ; qtot  0.000
   896     CG2R61    112    GP001     C8    896     0.000000    12.0110   ; qtot  0.000
   897     CG2R61    113    GP001     C1    897     0.000000    12.0110   ; qtot  0.000
   898     CG2R61    113    GP001     C2    898     0.000000    12.0110   ; qtot  0.000
   899     CG2R61    113    GP001     C3    899     0.000000    12.0110   ; qtot  0.000
   900     CG2R61    113    GP001     C4    900     0.000000    12.0110   ; qtot  0.000
   901     CG2R61    113    GP001     C5    901     0.000000    12.0110   ; qtot  0.000
   902     CG2R61    113    GP001     C6    902     0.000000    12.0110   ; qtot  0.000
   903     CG2R61    113    GP001     C7    903     0.000000    12.0110   ; qtot  0.000
   904     CG2R61    113    GP001     C8    904     0.000000    12.0110   ; qtot  0.000
   905     CG2R61    114    GP001     C1    905     0.000000    12.0110   ; qtot  0.000
   906     CG2R61    114    GP001     C2    906     0.000000    12.0110   ; qtot  0.000
   907     CG2R61    114    GP001     C3    907     0.000000    12.0110   ; qtot  0.000
   908     CG2R61    114    GP001     C4    908     0.000000    12.0110   ; qtot  0.000
   909     CG2R61    114    GP001     C5    909     0.000000    12.0110   ; qtot  0.000
   910     CG2R61    114    GP001     C6    910     0.000000    12.0110   ; qtot  0.000
   911     CG2R61    114    GP001     C7    911     0.000000    12.0110   ; qtot  0.000
   912     CG2R61    114    GP001     C8    912     0.000000    12.0110   ; qtot  0.000
   913     CG2R61    115    GP001     C1    913     0.000000    12.0110   ; qtot  0.000
   914     CG2R61    115    GP001     C2    914     0.000000    12.0110   ; qtot  0.000
   915     CG2R61    115    GP001     C3    915     0.000000    12.0110   ; qtot  0.000
   916     CG2R61    115    GP001     C4    916     0.000000    12.0110   ; qtot  0.000
   917     CG2R61    115    GP001     C5    917     0.000000    12.0110   ; qtot  0.000
   918     CG2R61    115    GP001     C6    918     0.000000    12.0110   ; qtot  0.000
   919     CG2R61    115    GP001     C7    919     0.000000    12.0110   ; qtot  0.000
   920     CG2R61    115    GP001     C8    920     0.000000    12.0110   ; qtot  0.000
   921     CG2R61    116    GP001     C1    921     0.000000    12.0110   ; qtot  0.000
   922     CG2R61    116    GP001     C2    922     0.000000    12.0110   ; qtot  0.000
   923     CG2R61    116    GP001     C3    923     0.000000    12.0110   ; qtot  0.000
   924     CG2R61    116    GP001     C4    924     0.000000    12.0110   ; qtot  0.000
   925     CG2R61    116    GP001     C5    925     0.000000    12.0110   ; qtot  0.000
   926     CG2R61    116    GP001     C6    926     0.000000    12.0110   ; qtot  0.000
   927     CG2R61    116    GP001     C7    927     0.000000    12.0110   ; qtot  0.000
   928     CG2R61    116    GP001     C8    928     0.000000    12.0110   ; qtot  0.000
   929     CG2R61    117    GP001     C1    929     0.000000    12.0110   ; qtot  0.000
   930     CG2R61    117    GP001     C2    930     0.000000    12.0110   ; qtot  0.000
   931     CG2R61    117    GP001     C3    931     0.000000    12.0110   ; qtot  0.000
   932     CG2R61    117    GP001     C4    932     0.000000    12.0110   ; qtot  0.000
   933     CG2R61    117    GP001     C5    933     0.000000    12.0110   ; qtot  0.000
   934     CG2R61    117    GP001     C6    934     0.000000    12.0110   ; qtot  0.000
   935     CG2R61    117    GP001     C7    935     0.000000    12.0110   ; qtot  0.000
   936     CG2R61    117    GP001     C8    936     0.000000    12.0110   ; qtot  0.000
   937     CG2R61    118    GP001     C1    937     0.000000    12.0110   ; qtot  0.000
   938     CG2R61    118    GP001     C2    938     0.000000    12.0110   ; qtot  0.000
   939     CG2R61    118    GP001     C3    939     0.000000    12.0110   ; qtot  0.000
   940     CG2R61    118    GP001     C4    940     0.000000    12.0110   ; qtot  0.000
   941     CG2R61    118    GP001     C5    941     0.000000    12.0110   ; qtot  0.000
   942     CG2R61    118    GP001     C6    942     0.000000    12.0110   ; qtot  0.000
   943     CG2R61    118    GP001     C7    943     0.000000    12.0110   ; qtot  0.000
   944     CG2R61    118    GP001     C8    944     0.000000    12.0110   ; qtot  0.000
   945     CG2R61    119    GP001     C1    945     0.000000    12.0110   ; qtot  0.000
   946     CG2R61    119    GP001     C2    946     0.000000    12.0110   ; qtot  0.000
   947     CG2R61    119    GP001     C3    947     0.000000    12.0110   ; qtot  0.000
   948     CG2R61    119    GP001     C4    948     0.000000    12.0110   ; qtot  0.000
   949     CG2R61    119    GP001     C5    949     0.000000    12.0110   ; qtot  0.000
   950     CG2R61    119    GP001     C6    950     0.000000    12.0110   ; qtot  0.000
   951     CG2R61    119    GP001     C7    951     0.000000    12.0110   ; qtot  0.000
   952     CG2R61    119    GP001     C8    952     0.000000    12.0110   ; qtot  0.000
   953     CG2R61    120    GP001     C1    953     0.000000    12.0110   ; qtot  0.000
   954     CG2R61    120    GP001     C2    954     0.000000    12.0110   ; qtot  0.000
   955     CG2R61    120    GP001     C3    955     0.000000    12.0110   ; qtot  0.000
   956     CG2R61    120    GP001     C4    956     0.000000    12.0110   ; qtot  0.000
   957     CG2R61    120    GP001     C5    957     0.000000    12.0110   ; qtot  0.000
   958     CG2R61    120    GP001     C6    958     0.000000    12.0110   ; qtot  0.000
   959     CG2R61    120    GP001     C7    959     0.000000    12.0110   ; qtot  0.000
   960     CG2R61    120    GP001     C8    960     0.000000    12.0110   ; qtot  0.000
   961     CG2R61    121    GP001     C1    961     0.000000    12.0110   ; qtot  0.000
   962     CG2R61    121    GP001     C2    962     0.000000    12.0110   ; qtot  0.000
   963     CG2R61    121    GP001     C3    963     0.000000    12.0110   ; qtot  0.000
   964     CG2R61    121    GP001     C4    964     0.000000    12.0110   ; qtot  0.000
   965     CG2R61    121    GP001     C5    965     0.000000    12.0110   ; qtot  0.000
   966     CG2R61    121    GP001     C6    966     0.000000    12.0110   ; qtot  0.000
   967     CG2R61    121    GP001     C7    967     0.000000    12.0110   ; qtot  0.000
   968     CG2R61    121    GP001     C8    968     0.000000    12.0110   ; qtot  0.000
   969     CG2R61    122    GP001     C1    969     0.000000    12.0110   ; qtot  0.000
   970     CG2R61    122    GP001     C2    970     0.000000    12.0110   ; qtot  0.000
   971     CG2R61    122    GP001     C3    971     0.000000    12.0110   ; qtot  0.000
   972     CG2R61    122    GP001     C4    972     0.000000    12.0110   ; qtot  0.000
   973     CG2R61    122    GP001     C5    973     0.000000    12.0110   ; qtot  0.000
   974     CG2R61    122    GP001     C6    974     0.000000    12.0110   ; qtot  0.000
   975     CG2R61    122    GP001     C7    975     0.000000    12.0110   ; qtot  0.000
   976     CG2R61    122    GP001     C8    976     0.000000    12.0110   ; qtot  0.000
   977     CG2R61    123    GP001     C1    977     0.000000    12.0110   ; qtot  0.000
   978     CG2R61    123    GP001     C2    978     0.000000    12.0110   ; qtot  0.000
   979     CG2R61    123    GP001     C3    979     0.000000    12.0110   ; qtot  0.000
   980     CG2R61    123    GP001     C4    980     0.000000    12.0110   ; qtot  0.000
   981     CG2R61    123    GP001     C5    981     0.000000    12.0110   ; qtot  0.000
   982     CG2R61    123    GP001     C6    982     0.000000    12.0110   ; qtot  0.000
   983     CG2R61    123    GP001     C7    983     0.000000    12.0110   ; qtot  0.000
   984     CG2R61    123    GP001     C8    984     0.000000    12.0110   ; qtot  0.000
   985     CG2R61    124    GP001     C1    985     0.000000    12.0110   ; qtot  0.000
   986     CG2R61    124    GP001     C2    986     0.000000    12.0110   ; qtot  0.000
   987     CG2R61    124    GP001     C3    987     0.000000    12.0110   ; qtot  0.000
   988     CG2R61    124    GP001     C4    988     0.000000    12.0110   ; qtot  0.000
   989     CG2R61    124    GP001     C5    989     0.000000    12.0110   ; qtot  0.000
   990     CG2R61    124    GP001     C6    990     0.000000    12.0110   ; qtot  0.000
   991     CG2R61    124    GP001     C7    991     0.000000    12.0110   ; qtot  0.000
   992     CG2R61    124    GP001     C8    992     0.000000    12.0110   ; qtot  0.000
   993     CG2R61    125    GP001     C1    993     0.000000    12.0110   ; qtot  0.000
   994     CG2R61    125    GP001     C2    994     0.000000    12.0110   ; qtot  0.000
   995     CG2R61    125    GP001     C3    995     0.000000    12.0110   ; qtot  0.000
   996     CG2R61    125    GP001     C4    996     0.000000    12.0110   ; qtot  0.000
   997     CG2R61    125    GP001     C5    997     0.000000    12.0110   ; qtot  0.000
   998     CG2R61    125    GP001     C6    998     0.000000    12.0110   ; qtot  0.000
   999     CG2R61    125    GP001     C7    999     0.000000    12.0110   ; qtot  0.000
  1000     CG2R61    125    GP001     C8   1000     0.000000    12.0110   ; qtot  0.000
  1001     CG2R61    126    GP001     C1   1001     0.000000    12.0110   ; qtot  0.000
  1002     CG2R61    126    GP001     C2   1002     0.000000    12.0110   ; qtot  0.000
  1003     CG2R61    126    GP001     C3   1003     0.000000    12.0110   ; qtot  0.000
  1004     CG2R61    126    GP001     C4   1004     0.000000    12.0110   ; qtot  0.000
  1005     CG2R61    126    GP001     C5   1005     0.000000    12.0110   ; qtot  0.000
  1006     CG2R61    126    GP001     C6   1006     0.000000    12.0110   ; qtot  0.000
  1007     CG2R61    126    GP001     C7   1007     0.000000    12.0110   ; qtot  0.000
  1008     CG2R61    126    GP001     C8   1008     0.000000    12.0110   ; qtot  0.000
  1009     CG2R61    127    GP001     C1   1009     0.000000    12.0110   ; qtot  0.000
  1010     CG2R61    127    GP001     C2   1010     0.000000    12.0110   ; qtot  0.000
  1011     CG2R61    127    GP001     C3   1011     0.000000    12.0110   ; qtot  0.000
  1012     CG2R61    127    GP001     C4   1012     0.000000    12.0110   ; qtot  0.000
  1013     CG2R61    127    GP001     C5   1013     0.000000    12.0110   ; qtot  0.000
  1014     CG2R61    127    GP001     C6   1014     0.000000    12.0110   ; qtot  0.000
  1015     CG2R61    127    GP001     C7   1015     0.000000    12.0110   ; qtot  0.000
  1016     CG2R61    127    GP001     C8   1016     0.000000    12.0110   ; qtot  0.000
  1017     CG2R61    128    GP001     C1   1017     0.000000    12.0110   ; qtot  0.000
  1018     CG2R61    128    GP001     C2   1018     0.000000    12.0110   ; qtot  0.000
  1019     CG2R61    128    GP001     C3   1019     0.000000    12.0110   ; qtot  0.000
  1020     CG2R61    128    GP001     C4   1020     0.000000    12.0110   ; qtot  0.000
  1021     CG2R61    128    GP001     C5   1021     0.000000    12.0110   ; qtot  0.000
  1022     CG2R61    128    GP001     C6   1022     0.000000    12.0110   ; qtot  0.000
  1023     CG2R61    128    GP001     C7   1023     0.000000    12.0110   ; qtot  0.000
  1024     CG2R61    128    GP001     C8   1024     0.000000    12.0110   ; qtot  0.000
  1025     CG2R61    129    GP001     C1   1025     0.000000    12.0110   ; qtot  0.000
  1026     CG2R61    129    GP001     C2   1026     0.000000    12.0110   ; qtot  0.000
  1027     CG2R61    129    GP001     C3   1027     0.000000    12.0110   ; qtot  0.000
  1028     CG2R61    129    GP001     C4   1028     0.000000    12.0110   ; qtot  0.000
  1029     CG2R61    129    GP001     C5   1029     0.000000    12.0110   ; qtot  0.000
  1030     CG2R61    129    GP001     C6   1030     0.000000    12.0110   ; qtot  0.000
  1031     CG2R61    129    GP001     C7   1031     0.000000    12.0110   ; qtot  0.000
  1032     CG2R61    129    GP001     C8   1032     0.000000    12.0110   ; qtot  0.000
  1033     CG2R61    130    GP001     C1   1033     0.000000    12.0110   ; qtot  0.000
  1034     CG2R61    130    GP001     C2   1034     0.000000    12.0110   ; qtot  0.000
  1035     CG2R61    130    GP001     C3   1035     0.000000    12.0110   ; qtot  0.000
  1036     CG2R61    130    GP001     C4   1036     0.000000    12.0110   ; qtot  0.000
  1037     CG2R61    130    GP001     C5   1037     0.000000    12.0110   ; qtot  0.000
  1038     CG2R61    130    GP001     C6   1038     0.000000    12.0110   ; qtot  0.000
  1039     CG2R61    130    GP001     C7   1039     0.000000    12.0110   ; qtot  0.000
  1040     CG2R61    130    GP001     C8   1040     0.000000    12.0110   ; qtot  0.000
  1041     CG2R61    131    GP001     C1   1041     0.000000    12.0110   ; qtot  0.000
  1042     CG2R61    131    GP001     C2   1042     0.000000    12.0110   ; qtot  0.000
  1043     CG2R61    131    GP001     C3   1043     0.000000    12.0110   ; qtot  0.000
  1044     CG2R61    131    GP001     C4   1044     0.000000    12.0110   ; qtot  0.000
  1045     CG2R61    131    GP001     C5   1045     0.000000    12.0110   ; qtot  0.000
  1046     CG2R61    131    GP001     C6   1046     0.000000    12.0110   ; qtot  0.000
  1047     CG2R61    131    GP001     C7   1047     0.000000    12.0110   ; qtot  0.000
  1048     CG2R61    131    GP001     C8   1048     0.000000    12.0110   ; qtot  0.000
  1049     CG2R61    132    GP001     C1   1049     0.000000    12.0110   ; qtot  0.000
  1050     CG2R61    132    GP001     C2   1050     0.000000    12.0110   ; qtot  0.000
  1051     CG2R61    132    GP001     C3   1051     0.000000    12.0110   ; qtot  0.000
  1052     CG2R61    132    GP001     C4   1052     0.000000    12.0110   ; qtot  0.000
  1053     CG2R61    132    GP001     C5   1053     0.000000    12.0110   ; qtot  0.000
  1054     CG2R61    132    GP001     C6   1054     0.000000    12.0110   ; qtot  0.000
  1055     CG2R61    132    GP001     C7   1055     0.000000    12.0110   ; qtot  0.000
  1056     CG2R61    132    GP001     C8   1056     0.000000    12.0110   ; qtot  0.000

[ bonds ]
; ai	aj	funct	b0	Kb
    1     2     1
   96     1     1
  964     1     1
    2     3     1
    7     2     1
    3     4     1
   94     3     1
    4     5     1
    4    97     1
    5     6     1
    5   104     1
    6     7     1
    6    11     1
    7     8     1
    8     9     1
  965     8     1
    9    10     1
  972     9     1
   10    11     1
   15    10     1
   11    12     1
   12    13     1
   12   105     1
   13    14     1
   13   112     1
   14    15     1
   14    19     1
   15    16     1
   16    17     1
  973    16     1
   17    18     1
  980    17     1
   18    19     1
   23    18     1
   19    20     1
   20    21     1
   20   113     1
   21    22     1
   21   120     1
   22    23     1
   22    27     1
   23    24     1
   24    25     1
  981    24     1
   25    26     1
  988    25     1
   26    27     1
   31    26     1
   27    28     1
   28    29     1
   28   121     1
   29    30     1
   29   128     1
   30    31     1
   30    35     1
   31    32     1
   32    33     1
  989    32     1
   33    34     1
  996    33     1
   34    35     1
   39    34     1
   35    36     1
   36    37     1
   36   129     1
   37    38     1
   37   136     1
   38    39     1
   38    43     1
   39    40     1
   40    41     1
  997    40     1
   41    42     1
 1004    41     1
   42    43     1
   47    42     1
   43    44     1
   44    45     1
   44   137     1
   45    46     1
   45   144     1
   46    47     1
   46    51     1
   47    48     1
   48    49     1
 1005    48     1
   49    50     1
 1012    49     1
   50    51     1
   55    50     1
   51    52     1
   52    53     1
   52   145     1
   53    54     1
   53   152     1
   54    55     1
   54    59     1
   55    56     1
   56    57     1
 1013    56     1
   57    58     1
 1020    57     1
   58    59     1
   63    58     1
   59    60     1
   60    61     1
   60   153     1
   61    62     1
   61   160     1
   62    63     1
   62    67     1
   63    64     1
   64    65     1
 1021    64     1
   65    66     1
 1028    65     1
   66    67     1
   71    66     1
   67    68     1
   68    69     1
   68   161     1
   69    70     1
   69   168     1
   70    71     1
   70    75     1
   71    72     1
   72    73     1
 1029    72     1
   73    74     1
 1036    73     1
   74    75     1
   79    74     1
   75    76     1
   76    77     1
   76   169     1
   77    78     1
   77   176     1
   78    79     1
   78    83     1
   79    80     1
   80    81     1
 1037    80     1
   81    82     1
 1044    81     1
   82    83     1
   87    82     1
   83    84     1
   84    85     1
   84   177     1
   85    86     1
   85   184     1
   86    87     1
   86    91     1
   87    88     1
   88    89     1
 1045    88     1
   89    90     1
 1052    89     1
   90    91     1
   95    90     1
   91    92     1
   92    93     1
   92   185     1
   93    94     1
   93   192     1
   94    95     1
   95    96     1
 1053    96     1
   97    98     1
  192    97     1
   98    99     1
  103    98     1
   99   100     1
  190    99     1
  100   101     1
  100   193     1
  101   102     1
  101   200     1
  102   103     1
  102   107     1
  103   104     1
  104   105     1
  105   106     1
  106   107     1
  111   106     1
  107   108     1
  108   109     1
  108   201     1
  109   110     1
  109   208     1
  110   111     1
  110   115     1
  111   112     1
  112   113     1
  113   114     1
  114   115     1
  119   114     1
  115   116     1
  116   117     1
  116   209     1
  117   118     1
  117   216     1
  118   119     1
  118   123     1
  119   120     1
  120   121     1
  121   122     1
  122   123     1
  127   122     1
  123   124     1
  124   125     1
  124   217     1
  125   126     1
  125   224     1
  126   127     1
  126   131     1
  127   128     1
  128   129     1
  129   130     1
  130   131     1
  135   130     1
  131   132     1
  132   133     1
  132   225     1
  133   134     1
  133   232     1
  134   135     1
  134   139     1
  135   136     1
  136   137     1
  137   138     1
  138   139     1
  143   138     1
  139   140     1
  140   141     1
  140   233     1
  141   142     1
  141   240     1
  142   143     1
  142   147     1
  143   144     1
  144   145     1
  145   146     1
  146   147     1
  151   146     1
  147   148     1
  148   149     1
  148   241     1
  149   150     1
  149   248     1
  150   151     1
  150   155     1
  151   152     1
  152   153     1
  153   154     1
  154   155     1
  159   154     1
  155   156     1
  156   157     1
  156   249     1
  157   158     1
  157   256     1
  158   159     1
  158   163     1
  159   160     1
  160   161     1
  161   162     1
  162   163     1
  167   162     1
  163   164     1
  164   165     1
  164   257     1
  165   166     1
  165   264     1
  166   167     1
  166   171     1
  167   168     1
  168   169     1
  169   170     1
  170   171     1
  175   170     1
  171   172     1
  172   173     1
  172   265     1
  173   174     1
  173   272     1
  174   175     1
  174   179     1
  175   176     1
  176   177     1
  177   178     1
  178   179     1
  183   178     1
  179   180     1
  180   181     1
  180   273     1
  181   182     1
  181   280     1
  182   183     1
  182   187     1
  183   184     1
  184   185     1
  185   186     1
  186   187     1
  191   186     1
  187   188     1
  188   189     1
  188   281     1
  189   190     1
  189   288     1
  190   191     1
  191   192     1
  193   194     1
  288   193     1
  194   195     1
  199   194     1
  195   196     1
  286   195     1
  196   197     1
  196   289     1
  197   198     1
  197   296     1
  198   199     1
  198   203     1
  199   200     1
  200   201     1
  201   202     1
  202   203     1
  207   202     1
  203   204     1
  204   205     1
  204   297     1
  205   206     1
  205   304     1
  206   207     1
  206   211     1
  207   208     1
  208   209     1
  209   210     1
  210   211     1
  215   210     1
  211   212     1
  212   213     1
  212   305     1
  213   214     1
  213   312     1
  214   215     1
  214   219     1
  215   216     1
  216   217     1
  217   218     1
  218   219     1
  223   218     1
  219   220     1
  220   221     1
  220   313     1
  221   222     1
  221   320     1
  222   223     1
  222   227     1
  223   224     1
  224   225     1
  225   226     1
  226   227     1
  231   226     1
  227   228     1
  228   229     1
  228   321     1
  229   230     1
  229   328     1
  230   231     1
  230   235     1
  231   232     1
  232   233     1
  233   234     1
  234   235     1
  239   234     1
  235   236     1
  236   237     1
  236   329     1
  237   238     1
  237   336     1
  238   239     1
  238   243     1
  239   240     1
  240   241     1
  241   242     1
  242   243     1
  247   242     1
  243   244     1
  244   245     1
  244   337     1
  245   246     1
  245   344     1
  246   247     1
  246   251     1
  247   248     1
  248   249     1
  249   250     1
  250   251     1
  255   250     1
  251   252     1
  252   253     1
  252   345     1
  253   254     1
  253   352     1
  254   255     1
  254   259     1
  255   256     1
  256   257     1
  257   258     1
  258   259     1
  263   258     1
  259   260     1
  260   261     1
  260   353     1
  261   262     1
  261   360     1
  262   263     1
  262   267     1
  263   264     1
  264   265     1
  265   266     1
  266   267     1
  271   266     1
  267   268     1
  268   269     1
  268   361     1
  269   270     1
  269   368     1
  270   271     1
  270   275     1
  271   272     1
  272   273     1
  273   274     1
  274   275     1
  279   274     1
  275   276     1
  276   277     1
  276   369     1
  277   278     1
  277   376     1
  278   279     1
  278   283     1
  279   280     1
  280   281     1
  281   282     1
  282   283     1
  287   282     1
  283   284     1
  284   285     1
  284   377     1
  285   286     1
  285   384     1
  286   287     1
  287   288     1
  289   290     1
  384   289     1
  290   291     1
  295   290     1
  291   292     1
  382   291     1
  292   293     1
  292   385     1
  293   294     1
  293   392     1
  294   295     1
  294   299     1
  295   296     1
  296   297     1
  297   298     1
  298   299     1
  303   298     1
  299   300     1
  300   301     1
  300   393     1
  301   302     1
  301   400     1
  302   303     1
  302   307     1
  303   304     1
  304   305     1
  305   306     1
  306   307     1
  311   306     1
  307   308     1
  308   309     1
  308   401     1
  309   310     1
  309   408     1
  310   311     1
  310   315     1
  311   312     1
  312   313     1
  313   314     1
  314   315     1
  319   314     1
  315   316     1
  316   317     1
  316   409     1
  317   318     1
  317   416     1
  318   319     1
  318   323     1
  319   320     1
  320   321     1
  321   322     1
  322   323     1
  327   322     1
  323   324     1
  324   325     1
  324   417     1
  325   326     1
  325   424     1
  326   327     1
  326   331     1
  327   328     1
  328   329     1
  329   330     1
  330   331     1
  335   330     1
  331   332     1
  332   333     1
  332   425     1
  333   334     1
  333   432     1
  334   335     1
  334   339     1
  335   336     1
  336   337     1
  337   338     1
  338   339     1
  343   338     1
  339   340     1
  340   341     1
  340   433     1
  341   342     1
  341   440     1
  342   343     1
  342   347     1
  343   344     1
  344   345     1
  345   346     1
  346   347     1
  351   346     1
  347   348     1
  348   349     1
  348   441     1
  349   350     1
  349   448     1
  350   351     1
  350   355     1
  351   352     1
  352   353     1
  353   354     1
  354   355     1
  359   354     1
  355   356     1
  356   357     1
  356   449     1
  357   358     1
  357   456     1
  358   359     1
  358   363     1
  359   360     1
  360   361     1
  361   362     1
  362   363     1
  367   362     1
  363   364     1
  364   365     1
  364   457     1
  365   366     1
  365   464     1
  366   367     1
  366   371     1
  367   368     1
  368   369     1
  369   370     1
  370   371     1
  375   370     1
  371   372     1
  372   373     1
  372   465     1
  373   374     1
  373   472     1
  374   375     1
  374   379     1
  375   376     1
  376   377     1
  377   378     1
  378   379     1
  383   378     1
  379   380     1
  380   381     1
  380   473     1
  381   382     1
  381   480     1
  382   383     1
  383   384     1
  385   386     1
  480   385     1
  386   387     1
  391   386     1
  387   388     1
  478   387     1
  388   389     1
  388   481     1
  389   390     1
  389   488     1
  390   391     1
  390   395     1
  391   392     1
  392   393     1
  393   394     1
  394   395     1
  399   394     1
  395   396     1
  396   397     1
  396   489     1
  397   398     1
  397   496     1
  398   399     1
  398   403     1
  399   400     1
  400   401     1
  401   402     1
  402   403     1
  407   402     1
  403   404     1
  404   405     1
  404   497     1
  405   406     1
  405   504     1
  406   407     1
  406   411     1
  407   408     1
  408   409     1
  409   410     1
  410   411     1
  415   410     1
  411   412     1
  412   413     1
  412   505     1
  413   414     1
  413   512     1
  414   415     1
  414   419     1
  415   416     1
  416   417     1
  417   418     1
  418   419     1
  423   418     1
  419   420     1
  420   421     1
  420   513     1
  421   422     1
  421   520     1
  422   423     1
  422   427     1
  423   424     1
  424   425     1
  425   426     1
  426   427     1
  431   426     1
  427   428     1
  428   429     1
  428   521     1
  429   430     1
  429   528     1
  430   431     1
  430   435     1
  431   432     1
  432   433     1
  433   434     1
  434   435     1
  439   434     1
  435   436     1
  436   437     1
  436   529     1
  437   438     1
  437   536     1
  438   439     1
  438   443     1
  439   440     1
  440   441     1
  441   442     1
  442   443     1
  447   442     1
  443   444     1
  444   445     1
  444   537     1
  445   446     1
  445   544     1
  446   447     1
  446   451     1
  447   448     1
  448   449     1
  449   450     1
  450   451     1
  455   450     1
  451   452     1
  452   453     1
  452   545     1
  453   454     1
  453   552     1
  454   455     1
  454   459     1
  455   456     1
  456   457     1
  457   458     1
  458   459     1
  463   458     1
  459   460     1
  460   461     1
  460   553     1
  461   462     1
  461   560     1
  462   463     1
  462   467     1
  463   464     1
  464   465     1
  465   466     1
  466   467     1
  471   466     1
  467   468     1
  468   469     1
  468   561     1
  469   470     1
  469   568     1
  470   471     1
  470   475     1
  471   472     1
  472   473     1
  473   474     1
  474   475     1
  479   474     1
  475   476     1
  476   477     1
  476   569     1
  477   478     1
  477   576     1
  478   479     1
  479   480     1
  481   482     1
  576   481     1
  482   483     1
  487   482     1
  483   484     1
  574   483     1
  484   485     1
  484   577     1
  485   486     1
  485   584     1
  486   487     1
  486   491     1
  487   488     1
  488   489     1
  489   490     1
  490   491     1
  495   490     1
  491   492     1
  492   493     1
  492   585     1
  493   494     1
  493   592     1
  494   495     1
  494   499     1
  495   496     1
  496   497     1
  497   498     1
  498   499     1
  503   498     1
  499   500     1
  500   501     1
  500   593     1
  501   502     1
  501   600     1
  502   503     1
  502   507     1
  503   504     1
  504   505     1
  505   506     1
  506   507     1
  511   506     1
  507   508     1
  508   509     1
  508   601     1
  509   510     1
  509   608     1
  510   511     1
  510   515     1
  511   512     1
  512   513     1
  513   514     1
  514   515     1
  519   514     1
  515   516     1
  516   517     1
  516   609     1
  517   518     1
  517   616     1
  518   519     1
  518   523     1
  519   520     1
  520   521     1
  521   522     1
  522   523     1
  527   522     1
  523   524     1
  524   525     1
  524   617     1
  525   526     1
  525   624     1
  526   527     1
  526   531     1
  527   528     1
  528   529     1
  529   530     1
  530   531     1
  535   530     1
  531   532     1
  532   533     1
  532   625     1
  533   534     1
  533   632     1
  534   535     1
  534   539     1
  535   536     1
  536   537     1
  537   538     1
  538   539     1
  543   538     1
  539   540     1
  540   541     1
  540   633     1
  541   542     1
  541   640     1
  542   543     1
  542   547     1
  543   544     1
  544   545     1
  545   546     1
  546   547     1
  551   546     1
  547   548     1
  548   549     1
  548   641     1
  549   550     1
  549   648     1
  550   551     1
  550   555     1
  551   552     1
  552   553     1
  553   554     1
  554   555     1
  559   554     1
  555   556     1
  556   557     1
  556   649     1
  557   558     1
  557   656     1
  558   559     1
  558   563     1
  559   560     1
  560   561     1
  561   562     1
  562   563     1
  567   562     1
  563   564     1
  564   565     1
  564   657     1
  565   566     1
  565   664     1
  566   567     1
  566   571     1
  567   568     1
  568   569     1
  569   570     1
  570   571     1
  575   570     1
  571   572     1
  572   573     1
  572   665     1
  573   574     1
  573   672     1
  574   575     1
  575   576     1
  577   578     1
  672   577     1
  578   579     1
  583   578     1
  579   580     1
  670   579     1
  580   581     1
  580   673     1
  581   582     1
  581   680     1
  582   583     1
  582   587     1
  583   584     1
  584   585     1
  585   586     1
  586   587     1
  591   586     1
  587   588     1
  588   589     1
  588   681     1
  589   590     1
  589   688     1
  590   591     1
  590   595     1
  591   592     1
  592   593     1
  593   594     1
  594   595     1
  599   594     1
  595   596     1
  596   597     1
  596   689     1
  597   598     1
  597   696     1
  598   599     1
  598   603     1
  599   600     1
  600   601     1
  601   602     1
  602   603     1
  607   602     1
  603   604     1
  604   605     1
  604   697     1
  605   606     1
  605   704     1
  606   607     1
  606   611     1
  607   608     1
  608   609     1
  609   610     1
  610   611     1
  615   610     1
  611   612     1
  612   613     1
  612   705     1
  613   614     1
  613   712     1
  614   615     1
  614   619     1
  615   616     1
  616   617     1
  617   618     1
  618   619     1
  623   618     1
  619   620     1
  620   621     1
  620   713     1
  621   622     1
  621   720     1
  622   623     1
  622   627     1
  623   624     1
  624   625     1
  625   626     1
  626   627     1
  631   626     1
  627   628     1
  628   629     1
  628   721     1
  629   630     1
  629   728     1
  630   631     1
  630   635     1
  631   632     1
  632   633     1
  633   634     1
  634   635     1
  639   634     1
  635   636     1
  636   637     1
  636   729     1
  637   638     1
  637   736     1
  638   639     1
  638   643     1
  639   640     1
  640   641     1
  641   642     1
  642   643     1
  647   642     1
  643   644     1
  644   645     1
  644   737     1
  645   646     1
  645   744     1
  646   647     1
  646   651     1
  647   648     1
  648   649     1
  649   650     1
  650   651     1
  655   650     1
  651   652     1
  652   653     1
  652   745     1
  653   654     1
  653   752     1
  654   655     1
  654   659     1
  655   656     1
  656   657     1
  657   658     1
  658   659     1
  663   658     1
  659   660     1
  660   661     1
  660   753     1
  661   662     1
  661   760     1
  662   663     1
  662   667     1
  663   664     1
  664   665     1
  665   666     1
  666   667     1
  671   666     1
  667   668     1
  668   669     1
  668   761     1
  669   670     1
  669   768     1
  670   671     1
  671   672     1
  673   674     1
  768   673     1
  674   675     1
  679   674     1
  675   676     1
  766   675     1
  676   677     1
  676   769     1
  677   678     1
  677   776     1
  678   679     1
  678   683     1
  679   680     1
  680   681     1
  681   682     1
  682   683     1
  687   682     1
  683   684     1
  684   685     1
  684   777     1
  685   686     1
  685   784     1
  686   687     1
  686   691     1
  687   688     1
  688   689     1
  689   690     1
  690   691     1
  695   690     1
  691   692     1
  692   693     1
  692   785     1
  693   694     1
  693   792     1
  694   695     1
  694   699     1
  695   696     1
  696   697     1
  697   698     1
  698   699     1
  703   698     1
  699   700     1
  700   701     1
  700   793     1
  701   702     1
  701   800     1
  702   703     1
  702   707     1
  703   704     1
  704   705     1
  705   706     1
  706   707     1
  711   706     1
  707   708     1
  708   709     1
  708   801     1
  709   710     1
  709   808     1
  710   711     1
  710   715     1
  711   712     1
  712   713     1
  713   714     1
  714   715     1
  719   714     1
  715   716     1
  716   717     1
  716   809     1
  717   718     1
  717   816     1
  718   719     1
  718   723     1
  719   720     1
  720   721     1
  721   722     1
  722   723     1
  727   722     1
  723   724     1
  724   725     1
  724   817     1
  725   726     1
  725   824     1
  726   727     1
  726   731     1
  727   728     1
  728   729     1
  729   730     1
  730   731     1
  735   730     1
  731   732     1
  732   733     1
  732   825     1
  733   734     1
  733   832     1
  734   735     1
  734   739     1
  735   736     1
  736   737     1
  737   738     1
  738   739     1
  743   738     1
  739   740     1
  740   741     1
  740   833     1
  741   742     1
  741   840     1
  742   743     1
  742   747     1
  743   744     1
  744   745     1
  745   746     1
  746   747     1
  751   746     1
  747   748     1
  748   749     1
  748   841     1
  749   750     1
  749   848     1
  750   751     1
  750   755     1
  751   752     1
  752   753     1
  753   754     1
  754   755     1
  759   754     1
  755   756     1
  756   757     1
  756   849     1
  757   758     1
  757   856     1
  758   759     1
  758   763     1
  759   760     1
  760   761     1
  761   762     1
  762   763     1
  767   762     1
  763   764     1
  764   765     1
  764   857     1
  765   766     1
  765   864     1
  766   767     1
  767   768     1
  769   770     1
  864   769     1
  770   771     1
  775   770     1
  771   772     1
  862   771     1
  772   773     1
  772   865     1
  773   774     1
  773   872     1
  774   775     1
  774   779     1
  775   776     1
  776   777     1
  777   778     1
  778   779     1
  783   778     1
  779   780     1
  780   781     1
  780   873     1
  781   782     1
  781   880     1
  782   783     1
  782   787     1
  783   784     1
  784   785     1
  785   786     1
  786   787     1
  791   786     1
  787   788     1
  788   789     1
  788   881     1
  789   790     1
  789   888     1
  790   791     1
  790   795     1
  791   792     1
  792   793     1
  793   794     1
  794   795     1
  799   794     1
  795   796     1
  796   797     1
  796   889     1
  797   798     1
  797   896     1
  798   799     1
  798   803     1
  799   800     1
  800   801     1
  801   802     1
  802   803     1
  807   802     1
  803   804     1
  804   805     1
  804   897     1
  805   806     1
  805   904     1
  806   807     1
  806   811     1
  807   808     1
  808   809     1
  809   810     1
  810   811     1
  815   810     1
  811   812     1
  812   813     1
  812   905     1
  813   814     1
  813   912     1
  814   815     1
  814   819     1
  815   816     1
  816   817     1
  817   818     1
  818   819     1
  823   818     1
  819   820     1
  820   821     1
  820   913     1
  821   822     1
  821   920     1
  822   823     1
  822   827     1
  823   824     1
  824   825     1
  825   826     1
  826   827     1
  831   826     1
  827   828     1
  828   829     1
  828   921     1
  829   830     1
  829   928     1
  830   831     1
  830   835     1
  831   832     1
  832   833     1
  833   834     1
  834   835     1
  839   834     1
  835   836     1
  836   837     1
  836   929     1
  837   838     1
  837   936     1
  838   839     1
  838   843     1
  839   840     1
  840   841     1
  841   842     1
  842   843     1
  847   842     1
  843   844     1
  844   845     1
  844   937     1
  845   846     1
  845   944     1
  846   847     1
  846   851     1
  847   848     1
  848   849     1
  849   850     1
  850   851     1
  855   850     1
  851   852     1
  852   853     1
  852   945     1
  853   854     1
  853   952     1
  854   855     1
  854   859     1
  855   856     1
  856   857     1
  857   858     1
  858   859     1
  863   858     1
  859   860     1
  860   861     1
  860   953     1
  861   862     1
  861   960     1
  862   863     1
  863   864     1
  865   866     1
  960   865     1
  866   867     1
  871   866     1
  867   868     1
  958   867     1
  868   869     1
  868   961     1
  869   870     1
  869   968     1
  870   871     1
  870   875     1
  871   872     1
  872   873     1
  873   874     1
  874   875     1
  879   874     1
  875   876     1
  876   877     1
  876   969     1
  877   878     1
  877   976     1
  878   879     1
  878   883     1
  879   880     1
  880   881     1
  881   882     1
  882   883     1
  887   882     1
  883   884     1
  884   885     1
  884   977     1
  885   886     1
  885   984     1
  886   887     1
  886   891     1
  887   888     1
  888   889     1
  889   890     1
  890   891     1
  895   890     1
  891   892     1
  892   893     1
  892   985     1
  893   894     1
  893   992     1
  894   895     1
  894   899     1
  895   896     1
  896   897     1
  897   898     1
  898   899     1
  903   898     1
  899   900     1
  900   901     1
  900   993     1
  901   902     1
  901  1000     1
  902   903     1
  902   907     1
  903   904     1
  904   905     1
  905   906     1
  906   907     1
  911   906     1
  907   908     1
  908   909     1
  908  1001     1
  909   910     1
  909  1008     1
  910   911     1
  910   915     1
  911   912     1
  912   913     1
  913   914     1
  914   915     1
  919   914     1
  915   916     1
  916   917     1
  916  1009     1
  917   918     1
  917  1016     1
  918   919     1
  918   923     1
  919   920     1
  920   921     1
  921   922     1
  922   923     1
  927   922     1
  923   924     1
  924   925     1
  924  1017     1
  925   926     1
  925  1024     1
  926   927     1
  926   931     1
  927   928     1
  928   929     1
  929   930     1
  930   931     1
  935   930     1
  931   932     1
  932   933     1
  932  1025     1
  933   934     1
  933  1032     1
  934   935     1
  934   939     1
  935   936     1
  936   937     1
  937   938     1
  938   939     1
  943   938     1
  939   940     1
  940   941     1
  940  1033     1
  941   942     1
  941  1040     1
  942   943     1
  942   947     1
  943   944     1
  944   945     1
  945   946     1
  946   947     1
  951   946     1
  947   948     1
  948   949     1
  948  1041     1
  949   950     1
  949  1048     1
  950   951     1
  950   955     1
  951   952     1
  952   953     1
  953   954     1
  954   955     1
  959   954     1
  955   956     1
  956   957     1
  956  1049     1
  957   958     1
  957  1056     1
  958   959     1
  959   960     1
  961   962     1
 1056   961     1
  962   963     1
  967   962     1
  963   964     1
 1054   963     1
  964   965     1
  965   966     1
  966   967     1
  966   971     1
  967   968     1
  968   969     1
  969   970     1
  970   971     1
  975   970     1
  971   972     1
  972   973     1
  973   974     1
  974   975     1
  974   979     1
  975   976     1
  976   977     1
  977   978     1
  978   979     1
  983   978     1
  979   980     1
  980   981     1
  981   982     1
  982   983     1
  982   987     1
  983   984     1
  984   985     1
  985   986     1
  986   987     1
  991   986     1
  987   988     1
  988   989     1
  989   990     1
  990   991     1
  990   995     1
  991   992     1
  992   993     1
  993   994     1
  994   995     1
  999   994     1
  995   996     1
  996   997     1
  997   998     1
  998   999     1
  998  1003     1
  999  1000     1
 1000  1001     1
 1001  1002     1
 1002  1003     1
 1007  1002     1
 1003  1004     1
 1004  1005     1
 1005  1006     1
 1006  1007     1
 1006  1011     1
 1007  1008     1
 1008  1009     1
 1009  1010     1
 1010  1011     1
 1015  1010     1
 1011  1012     1
 1012  1013     1
 1013  1014     1
 1014  1015     1
 1014  1019     1
 1015  1016     1
 1016  1017     1
 1017  1018     1
 1018  1019     1
 1023  1018     1
 1019  1020     1
 1020  1021     1
 1021  1022     1
 1022  1023     1
 1022  1027     1
 1023  1024     1
 1024  1025     1
 1025  1026     1
 1026  1027     1
 1031  1026     1
 1027  1028     1
 1028  1029     1
 1029  1030     1
 1030  1031     1
 1030  1035     1
 1031  1032     1
 1032  1033     1
 1033  1034     1
 1034  1035     1
 1039  1034     1
 1035  1036     1
 1036  1037     1
 1037  1038     1
 1038  1039     1
 1038  1043     1
 1039  1040     1
 1040  1041     1
 1041  1042     1
 1042  1043     1
 1047  1042     1
 1043  1044     1
 1044  1045     1
 1045  1046     1
 1046  1047     1
 1046  1051     1
 1047  1048     1
 1048  1049     1
 1049  1050     1
 1050  1051     1
 1055  1050     1
 1051  1052     1
 1052  1053     1
 1053  1054     1
 1054  1055     1
 1055  1056     1

[ pairs ]
; ai	aj	funct	c6	c12 or
; ai	aj	funct	fudgeQQ	q1	q2	c6	c12
    1     4     1
    1     6     1
    1     8     1
    1    90     1
    1    94     1
    1   962     1
    1   966     1
    1  1052     1
    1  1054     1
    2     5     1
    2     9     1
    2    11     1
    2    93     1
    2    95     1
    2    97     1
    2   963     1
    2   965     1
    2  1053     1
    3     6     1
    3     8     1
    3    90     1
    3    92     1
    3    96     1
    3    98     1
    3   104     1
    3   192     1
    3   964     1
    4     7     1
    4    11     1
    4    93     1
    4    95     1
    4    99     1
    4   103     1
    4   105     1
    4   191     1
    5     8     1
    5    10     1
    5    12     1
    5    94     1
    5    98     1
    5   102     1
    5   106     1
    5   192     1
    6     9     1
    6    13     1
    6    15     1
    6    97     1
    6   103     1
    6   105     1
    6   965     1
    7    10     1
    7    12     1
    7    94     1
    7    96     1
    7   104     1
    7   964     1
    7   966     1
    7   972     1
    8    11     1
    8    15     1
    8   963     1
    8   967     1
    8   971     1
    8   973     1
    9    12     1
    9    14     1
    9    16     1
    9   964     1
    9   966     1
    9   970     1
    9   974     1
   10    13     1
   10    17     1
   10    19     1
   10   105     1
   10   965     1
   10   971     1
   10   973     1
   11    14     1
   11    16     1
   11   104     1
   11   106     1
   11   112     1
   11   972     1
   12    15     1
   12    19     1
   12   103     1
   12   107     1
   12   111     1
   12   113     1
   13    16     1
   13    18     1
   13    20     1
   13   104     1
   13   106     1
   13   110     1
   13   114     1
   14    17     1
   14    21     1
   14    23     1
   14   105     1
   14   111     1
   14   113     1
   14   973     1
   15    18     1
   15    20     1
   15   112     1
   15   972     1
   15   974     1
   15   980     1
   16    19     1
   16    23     1
   16   971     1
   16   975     1
   16   979     1
   16   981     1
   17    20     1
   17    22     1
   17    24     1
   17   972     1
   17   974     1
   17   978     1
   17   982     1
   18    21     1
   18    25     1
   18    27     1
   18   113     1
   18   973     1
   18   979     1
   18   981     1
   19    22     1
   19    24     1
   19   112     1
   19   114     1
   19   120     1
   19   980     1
   20    23     1
   20    27     1
   20   111     1
   20   115     1
   20   119     1
   20   121     1
   21    24     1
   21    26     1
   21    28     1
   21   112     1
   21   114     1
   21   118     1
   21   122     1
   22    25     1
   22    29     1
   22    31     1
   22   113     1
   22   119     1
   22   121     1
   22   981     1
   23    26     1
   23    28     1
   23   120     1
   23   980     1
   23   982     1
   23   988     1
   24    27     1
   24    31     1
   24   979     1
   24   983     1
   24   987     1
   24   989     1
   25    28     1
   25    30     1
   25    32     1
   25   980     1
   25   982     1
   25   986     1
   25   990     1
   26    29     1
   26    33     1
   26    35     1
   26   121     1
   26   981     1
   26   987     1
   26   989     1
   27    30     1
   27    32     1
   27   120     1
   27   122     1
   27   128     1
   27   988     1
   28    31     1
   28    35     1
   28   119     1
   28   123     1
   28   127     1
   28   129     1
   29    32     1
   29    34     1
   29    36     1
   29   120     1
   29   122     1
   29   126     1
   29   130     1
   30    33     1
   30    37     1
   30    39     1
   30   121     1
   30   127     1
   30   129     1
   30   989     1
   31    34     1
   31    36     1
   31   128     1
   31   988     1
   31   990     1
   31   996     1
   32    35     1
   32    39     1
   32   987     1
   32   991     1
   32   995     1
   32   997     1
   33    36     1
   33    38     1
   33    40     1
   33   988     1
   33   990     1
   33   994     1
   33   998     1
   34    37     1
   34    41     1
   34    43     1
   34   129     1
   34   989     1
   34   995     1
   34   997     1
   35    38     1
   35    40     1
   35   128     1
   35   130     1
   35   136     1
   35   996     1
   36    39     1
   36    43     1
   36   127     1
   36   131     1
   36   135     1
   36   137     1
   37    40     1
   37    42     1
   37    44     1
   37   128     1
   37   130     1
   37   134     1
   37   138     1
   38    41     1
   38    45     1
   38    47     1
   38   129     1
   38   135     1
   38   137     1
   38   997     1
   39    42     1
   39    44     1
   39   136     1
   39   996     1
   39   998     1
   39  1004     1
   40    43     1
   40    47     1
   40   995     1
   40   999     1
   40  1003     1
   40  1005     1
   41    44     1
   41    46     1
   41    48     1
   41   996     1
   41   998     1
   41  1002     1
   41  1006     1
   42    45     1
   42    49     1
   42    51     1
   42   137     1
   42   997     1
   42  1003     1
   42  1005     1
   43    46     1
   43    48     1
   43   136     1
   43   138     1
   43   144     1
   43  1004     1
   44    47     1
   44    51     1
   44   135     1
   44   139     1
   44   143     1
   44   145     1
   45    48     1
   45    50     1
   45    52     1
   45   136     1
   45   138     1
   45   142     1
   45   146     1
   46    49     1
   46    53     1
   46    55     1
   46   137     1
   46   143     1
   46   145     1
   46  1005     1
   47    50     1
   47    52     1
   47   144     1
   47  1004     1
   47  1006     1
   47  1012     1
   48    51     1
   48    55     1
   48  1003     1
   48  1007     1
   48  1011     1
   48  1013     1
   49    52     1
   49    54     1
   49    56     1
   49  1004     1
   49  1006     1
   49  1010     1
   49  1014     1
   50    53     1
   50    57     1
   50    59     1
   50   145     1
   50  1005     1
   50  1011     1
   50  1013     1
   51    54     1
   51    56     1
   51   144     1
   51   146     1
   51   152     1
   51  1012     1
   52    55     1
   52    59     1
   52   143     1
   52   147     1
   52   151     1
   52   153     1
   53    56     1
   53    58     1
   53    60     1
   53   144     1
   53   146     1
   53   150     1
   53   154     1
   54    57     1
   54    61     1
   54    63     1
   54   145     1
   54   151     1
   54   153     1
   54  1013     1
   55    58     1
   55    60     1
   55   152     1
   55  1012     1
   55  1014     1
   55  1020     1
   56    59     1
   56    63     1
   56  1011     1
   56  1015     1
   56  1019     1
   56  1021     1
   57    60     1
   57    62     1
   57    64     1
   57  1012     1
   57  1014     1
   57  1018     1
   57  1022     1
   58    61     1
   58    65     1
   58    67     1
   58   153     1
   58  1013     1
   58  1019     1
   58  1021     1
   59    62     1
   59    64     1
   59   152     1
   59   154     1
   59   160     1
   59  1020     1
   60    63     1
   60    67     1
   60   151     1
   60   155     1
   60   159     1
   60   161     1
   61    64     1
   61    66     1
   61    68     1
   61   152     1
   61   154     1
   61   158     1
   61   162     1
   62    65     1
   62    69     1
   62    71     1
   62   153     1
   62   159     1
   62   161     1
   62  1021     1
   63    66     1
   63    68     1
   63   160     1
   63  1020     1
   63  1022     1
   63  1028     1
   64    67     1
   64    71     1
   64  1019     1
   64  1023     1
   64  1027     1
   64  1029     1
   65    68     1
   65    70     1
   65    72     1
   65  1020     1
   65  1022     1
   65  1026     1
   65  1030     1
   66    69     1
   66    73     1
   66    75     1
   66   161     1
   66  1021     1
   66  1027     1
   66  1029     1
   67    70     1
   67    72     1
   67   160     1
   67   162     1
   67   168     1
   67  1028     1
   68    71     1
   68    75     1
   68   159     1
   68   163     1
   68   167     1
   68   169     1
   69    72     1
   69    74     1
   69    76     1
   69   160     1
   69   162     1
   69   166     1
   69   170     1
   70    73     1
   70    77     1
   70    79     1
   70   161     1
   70   167     1
   70   169     1
   70  1029     1
   71    74     1
   71    76     1
   71   168     1
   71  1028     1
   71  1030     1
   71  1036     1
   72    75     1
   72    79     1
   72  1027     1
   72  1031     1
   72  1035     1
   72  1037     1
   73    76     1
   73    78     1
   73    80     1
   73  1028     1
   73  1030     1
   73  1034     1
   73  1038     1
   74    77     1
   74    81     1
   74    83     1
   74   169     1
   74  1029     1
   74  1035     1
   74  1037     1
   75    78     1
   75    80     1
   75   168     1
   75   170     1
   75   176     1
   75  1036     1
   76    79     1
   76    83     1
   76   167     1
   76   171     1
   76   175     1
   76   177     1
   77    80     1
   77    82     1
   77    84     1
   77   168     1
   77   170     1
   77   174     1
   77   178     1
   78    81     1
   78    85     1
   78    87     1
   78   169     1
   78   175     1
   78   177     1
   78  1037     1
   79    82     1
   79    84     1
   79   176     1
   79  1036     1
   79  1038     1
   79  1044     1
   80    83     1
   80    87     1
   80  1035     1
   80  1039     1
   80  1043     1
   80  1045     1
   81    84     1
   81    86     1
   81    88     1
   81  1036     1
   81  1038     1
   81  1042     1
   81  1046     1
   82    85     1
   82    89     1
   82    91     1
   82   177     1
   82  1037     1
   82  1043     1
   82  1045     1
   83    86     1
   83    88     1
   83   176     1
   83   178     1
   83   184     1
   83  1044     1
   84    87     1
   84    91     1
   84   175     1
   84   179     1
   84   183     1
   84   185     1
   85    88     1
   85    90     1
   85    92     1
   85   176     1
   85   178     1
   85   182     1
   85   186     1
   86    89     1
   86    93     1
   86    95     1
   86   177     1
   86   183     1
   86   185     1
   86  1045     1
   87    90     1
   87    92     1
   87   184     1
   87  1044     1
   87  1046     1
   87  1052     1
   88    91     1
   88    95     1
   88  1043     1
   88  1047     1
   88  1051     1
   88  1053     1
   89    92     1
   89    94     1
   89    96     1
   89  1044     1
   89  1046     1
   89  1050     1
   89  1054     1
   90    93     1
   90   185     1
   90  1045     1
   90  1051     1
   90  1053     1
   91    94     1
   91    96     1
   91   184     1
   91   186     1
   91   192     1
   91  1052     1
   92    95     1
   92    97     1
   92   183     1
   92   187     1
   92   191     1
   93    96     1
   93    98     1
   93   184     1
   93   186     1
   93   190     1
   94    97     1
   94   185     1
   94   191     1
   94  1053     1
   95   192     1
   95   964     1
   95  1052     1
   95  1054     1
   96   963     1
   96   965     1
   96  1051     1
   96  1055     1
   97   100     1
   97   102     1
   97   104     1
   97   186     1
   97   190     1
   98   101     1
   98   105     1
   98   107     1
   98   189     1
   98   191     1
   98   193     1
   99   102     1
   99   104     1
   99   186     1
   99   188     1
   99   192     1
   99   194     1
   99   200     1
   99   288     1
  100   103     1
  100   107     1
  100   189     1
  100   191     1
  100   195     1
  100   199     1
  100   201     1
  100   287     1
  101   104     1
  101   106     1
  101   108     1
  101   190     1
  101   194     1
  101   198     1
  101   202     1
  101   288     1
  102   105     1
  102   109     1
  102   111     1
  102   193     1
  102   199     1
  102   201     1
  103   106     1
  103   108     1
  103   190     1
  103   192     1
  103   200     1
  104   107     1
  104   111     1
  105   108     1
  105   110     1
  105   112     1
  106   109     1
  106   113     1
  106   115     1
  106   201     1
  107   110     1
  107   112     1
  107   200     1
  107   202     1
  107   208     1
  108   111     1
  108   115     1
  108   199     1
  108   203     1
  108   207     1
  108   209     1
  109   112     1
  109   114     1
  109   116     1
  109   200     1
  109   202     1
  109   206     1
  109   210     1
  110   113     1
  110   117     1
  110   119     1
  110   201     1
  110   207     1
  110   209     1
  111   114     1
  111   116     1
  111   208     1
  112   115     1
  112   119     1
  113   116     1
  113   118     1
  113   120     1
  114   117     1
  114   121     1
  114   123     1
  114   209     1
  115   118     1
  115   120     1
  115   208     1
  115   210     1
  115   216     1
  116   119     1
  116   123     1
  116   207     1
  116   211     1
  116   215     1
  116   217     1
  117   120     1
  117   122     1
  117   124     1
  117   208     1
  117   210     1
  117   214     1
  117   218     1
  118   121     1
  118   125     1
  118   127     1
  118   209     1
  118   215     1
  118   217     1
  119   122     1
  119   124     1
  119   216     1
  120   123     1
  120   127     1
  121   124     1
  121   126     1
  121   128     1
  122   125     1
  122   129     1
  122   131     1
  122   217     1
  123   126     1
  123   128     1
  123   216     1
  123   218     1
  123   224     1
  124   127     1
  124   131     1
  124   215     1
  124   219     1
  124   223     1
  124   225     1
  125   128     1
  125   130     1
  125   132     1
  125   216     1
  125   218     1
  125   222     1
  125   226     1
  126   129     1
  126   133     1
  126   135     1
  126   217     1
  126   223     1
  126   225     1
  127   130     1
  127   132     1
  127   224     1
  128   131     1
  128   135     1
  129   132     1
  129   134     1
  129   136     1
  130   133     1
  130   137     1
  130   139     1
  130   225     1
  131   134     1
  131   136     1
  131   224     1
  131   226     1
  131   232     1
  132   135     1
  132   139     1
  132   223     1
  132   227     1
  132   231     1
  132   233     1
  133   136     1
  133   138     1
  133   140     1
  133   224     1
  133   226     1
  133   230     1
  133   234     1
  134   137     1
  134   141     1
  134   143     1
  134   225     1
  134   231     1
  134   233     1
  135   138     1
  135   140     1
  135   232     1
  136   139     1
  136   143     1
  137   140     1
  137   142     1
  137   144     1
  138   141     1
  138   145     1
  138   147     1
  138   233     1
  139   142     1
  139   144     1
  139   232     1
  139   234     1
  139   240     1
  140   143     1
  140   147     1
  140   231     1
  140   235     1
  140   239     1
  140   241     1
  141   144     1
  141   146     1
  141   148     1
  141   232     1
  141   234     1
  141   238     1
  141   242     1
  142   145     1
  142   149     1
  142   151     1
  142   233     1
  142   239     1
  142   241     1
  143   146     1
  143   148     1
  143   240     1
  144   147     1
  144   151     1
  145   148     1
  145   150     1
  145   152     1
  146   149     1
  146   153     1
  146   155     1
  146   241     1
  147   150     1
  147   152     1
  147   240     1
  147   242     1
  147   248     1
  148   151     1
  148   155     1
  148   239     1
  148   243     1
  148   247     1
  148   249     1
  149   152     1
  149   154     1
  149   156     1
  149   240     1
  149   242     1
  149   246     1
  149   250     1
  150   153     1
  150   157     1
  150   159     1
  150   241     1
  150   247     1
  150   249     1
  151   154     1
  151   156     1
  151   248     1
  152   155     1
  152   159     1
  153   156     1
  153   158     1
  153   160     1
  154   157     1
  154   161     1
  154   163     1
  154   249     1
  155   158     1
  155   160     1
  155   248     1
  155   250     1
  155   256     1
  156   159     1
  156   163     1
  156   247     1
  156   251     1
  156   255     1
  156   257     1
  157   160     1
  157   162     1
  157   164     1
  157   248     1
  157   250     1
  157   254     1
  157   258     1
  158   161     1
  158   165     1
  158   167     1
  158   249     1
  158   255     1
  158   257     1
  159   162     1
  159   164     1
  159   256     1
  160   163     1
  160   167     1
  161   164     1
  161   166     1
  161   168     1
  162   165     1
  162   169     1
  162   171     1
  162   257     1
  163   166     1
  163   168     1
  163   256     1
  163   258     1
  163   264     1
  164   167     1
  164   171     1
  164   255     1
  164   259     1
  164   263     1
  164   265     1
  165   168     1
  165   170     1
  165   172     1
  165   256     1
  165   258     1
  165   262     1
  165   266     1
  166   169     1
  166   173     1
  166   175     1
  166   257     1
  166   263     1
  166   265     1
  167   170     1
  167   172     1
  167   264     1
  168   171     1
  168   175     1
  169   172     1
  169   174     1
  169   176     1
  170   173     1
  170   177     1
  170   179     1
  170   265     1
  171   174     1
  171   176     1
  171   264     1
  171   266     1
  171   272     1
  172   175     1
  172   179     1
  172   263     1
  172   267     1
  172   271     1
  172   273     1
  173   176     1
  173   178     1
  173   180     1
  173   264     1
  173   266     1
  173   270     1
  173   274     1
  174   177     1
  174   181     1
  174   183     1
  174   265     1
  174   271     1
  174   273     1
  175   178     1
  175   180     1
  175   272     1
  176   179     1
  176   183     1
  177   180     1
  177   182     1
  177   184     1
  178   181     1
  178   185     1
  178   187     1
  178   273     1
  179   182     1
  179   184     1
  179   272     1
  179   274     1
  179   280     1
  180   183     1
  180   187     1
  180   271     1
  180   275     1
  180   279     1
  180   281     1
  181   184     1
  181   186     1
  181   188     1
  181   272     1
  181   274     1
  181   278     1
  181   282     1
  182   185     1
  182   189     1
  182   191     1
  182   273     1
  182   279     1
  182   281     1
  183   186     1
  183   188     1
  183   280     1
  184   187     1
  184   191     1
  185   188     1
  185   190     1
  185   192     1
  186   189     1
  186   281     1
  187   190     1
  187   192     1
  187   280     1
  187   282     1
  187   288     1
  188   191     1
  188   193     1
  188   279     1
  188   283     1
  188   287     1
  189   192     1
  189   194     1
  189   280     1
  189   282     1
  189   286     1
  190   193     1
  190   281     1
  190   287     1
  191   288     1
  193   196     1
  193   198     1
  193   200     1
  193   282     1
  193   286     1
  194   197     1
  194   201     1
  194   203     1
  194   285     1
  194   287     1
  194   289     1
  195   198     1
  195   200     1
  195   282     1
  195   284     1
  195   288     1
  195   290     1
  195   296     1
  195   384     1
  196   199     1
  196   203     1
  196   285     1
  196   287     1
  196   291     1
  196   295     1
  196   297     1
  196   383     1
  197   200     1
  197   202     1
  197   204     1
  197   286     1
  197   290     1
  197   294     1
  197   298     1
  197   384     1
  198   201     1
  198   205     1
  198   207     1
  198   289     1
  198   295     1
  198   297     1
  199   202     1
  199   204     1
  199   286     1
  199   288     1
  199   296     1
  200   203     1
  200   207     1
  201   204     1
  201   206     1
  201   208     1
  202   205     1
  202   209     1
  202   211     1
  202   297     1
  203   206     1
  203   208     1
  203   296     1
  203   298     1
  203   304     1
  204   207     1
  204   211     1
  204   295     1
  204   299     1
  204   303     1
  204   305     1
  205   208     1
  205   210     1
  205   212     1
  205   296     1
  205   298     1
  205   302     1
  205   306     1
  206   209     1
  206   213     1
  206   215     1
  206   297     1
  206   303     1
  206   305     1
  207   210     1
  207   212     1
  207   304     1
  208   211     1
  208   215     1
  209   212     1
  209   214     1
  209   216     1
  210   213     1
  210   217     1
  210   219     1
  210   305     1
  211   214     1
  211   216     1
  211   304     1
  211   306     1
  211   312     1
  212   215     1
  212   219     1
  212   303     1
  212   307     1
  212   311     1
  212   313     1
  213   216     1
  213   218     1
  213   220     1
  213   304     1
  213   306     1
  213   310     1
  213   314     1
  214   217     1
  214   221     1
  214   223     1
  214   305     1
  214   311     1
  214   313     1
  215   218     1
  215   220     1
  215   312     1
  216   219     1
  216   223     1
  217   220     1
  217   222     1
  217   224     1
  218   221     1
  218   225     1
  218   227     1
  218   313     1
  219   222     1
  219   224     1
  219   312     1
  219   314     1
  219   320     1
  220   223     1
  220   227     1
  220   311     1
  220   315     1
  220   319     1
  220   321     1
  221   224     1
  221   226     1
  221   228     1
  221   312     1
  221   314     1
  221   318     1
  221   322     1
  222   225     1
  222   229     1
  222   231     1
  222   313     1
  222   319     1
  222   321     1
  223   226     1
  223   228     1
  223   320     1
  224   227     1
  224   231     1
  225   228     1
  225   230     1
  225   232     1
  226   229     1
  226   233     1
  226   235     1
  226   321     1
  227   230     1
  227   232     1
  227   320     1
  227   322     1
  227   328     1
  228   231     1
  228   235     1
  228   319     1
  228   323     1
  228   327     1
  228   329     1
  229   232     1
  229   234     1
  229   236     1
  229   320     1
  229   322     1
  229   326     1
  229   330     1
  230   233     1
  230   237     1
  230   239     1
  230   321     1
  230   327     1
  230   329     1
  231   234     1
  231   236     1
  231   328     1
  232   235     1
  232   239     1
  233   236     1
  233   238     1
  233   240     1
  234   237     1
  234   241     1
  234   243     1
  234   329     1
  235   238     1
  235   240     1
  235   328     1
  235   330     1
  235   336     1
  236   239     1
  236   243     1
  236   327     1
  236   331     1
  236   335     1
  236   337     1
  237   240     1
  237   242     1
  237   244     1
  237   328     1
  237   330     1
  237   334     1
  237   338     1
  238   241     1
  238   245     1
  238   247     1
  238   329     1
  238   335     1
  238   337     1
  239   242     1
  239   244     1
  239   336     1
  240   243     1
  240   247     1
  241   244     1
  241   246     1
  241   248     1
  242   245     1
  242   249     1
  242   251     1
  242   337     1
  243   246     1
  243   248     1
  243   336     1
  243   338     1
  243   344     1
  244   247     1
  244   251     1
  244   335     1
  244   339     1
  244   343     1
  244   345     1
  245   248     1
  245   250     1
  245   252     1
  245   336     1
  245   338     1
  245   342     1
  245   346     1
  246   249     1
  246   253     1
  246   255     1
  246   337     1
  246   343     1
  246   345     1
  247   250     1
  247   252     1
  247   344     1
  248   251     1
  248   255     1
  249   252     1
  249   254     1
  249   256     1
  250   253     1
  250   257     1
  250   259     1
  250   345     1
  251   254     1
  251   256     1
  251   344     1
  251   346     1
  251   352     1
  252   255     1
  252   259     1
  252   343     1
  252   347     1
  252   351     1
  252   353     1
  253   256     1
  253   258     1
  253   260     1
  253   344     1
  253   346     1
  253   350     1
  253   354     1
  254   257     1
  254   261     1
  254   263     1
  254   345     1
  254   351     1
  254   353     1
  255   258     1
  255   260     1
  255   352     1
  256   259     1
  256   263     1
  257   260     1
  257   262     1
  257   264     1
  258   261     1
  258   265     1
  258   267     1
  258   353     1
  259   262     1
  259   264     1
  259   352     1
  259   354     1
  259   360     1
  260   263     1
  260   267     1
  260   351     1
  260   355     1
  260   359     1
  260   361     1
  261   264     1
  261   266     1
  261   268     1
  261   352     1
  261   354     1
  261   358     1
  261   362     1
  262   265     1
  262   269     1
  262   271     1
  262   353     1
  262   359     1
  262   361     1
  263   266     1
  263   268     1
  263   360     1
  264   267     1
  264   271     1
  265   268     1
  265   270     1
  265   272     1
  266   269     1
  266   273     1
  266   275     1
  266   361     1
  267   270     1
  267   272     1
  267   360     1
  267   362     1
  267   368     1
  268   271     1
  268   275     1
  268   359     1
  268   363     1
  268   367     1
  268   369     1
  269   272     1
  269   274     1
  269   276     1
  269   360     1
  269   362     1
  269   366     1
  269   370     1
  270   273     1
  270   277     1
  270   279     1
  270   361     1
  270   367     1
  270   369     1
  271   274     1
  271   276     1
  271   368     1
  272   275     1
  272   279     1
  273   276     1
  273   278     1
  273   280     1
  274   277     1
  274   281     1
  274   283     1
  274   369     1
  275   278     1
  275   280     1
  275   368     1
  275   370     1
  275   376     1
  276   279     1
  276   283     1
  276   367     1
  276   371     1
  276   375     1
  276   377     1
  277   280     1
  277   282     1
  277   284     1
  277   368     1
  277   370     1
  277   374     1
  277   378     1
  278   281     1
  278   285     1
  278   287     1
  278   369     1
  278   375     1
  278   377     1
  279   282     1
  279   284     1
  279   376     1
  280   283     1
  280   287     1
  281   284     1
  281   286     1
  281   288     1
  282   285     1
  282   377     1
  283   286     1
  283   288     1
  283   376     1
  283   378     1
  283   384     1
  284   287     1
  284   289     1
  284   375     1
  284   379     1
  284   383     1
  285   288     1
  285   290     1
  285   376     1
  285   378     1
  285   382     1
  286   289     1
  286   377     1
  286   383     1
  287   384     1
  289   292     1
  289   294     1
  289   296     1
  289   378     1
  289   382     1
  290   293     1
  290   297     1
  290   299     1
  290   381     1
  290   383     1
  290   385     1
  291   294     1
  291   296     1
  291   378     1
  291   380     1
  291   384     1
  291   386     1
  291   392     1
  291   480     1
  292   295     1
  292   299     1
  292   381     1
  292   383     1
  292   387     1
  292   391     1
  292   393     1
  292   479     1
  293   296     1
  293   298     1
  293   300     1
  293   382     1
  293   386     1
  293   390     1
  293   394     1
  293   480     1
  294   297     1
  294   301     1
  294   303     1
  294   385     1
  294   391     1
  294   393     1
  295   298     1
  295   300     1
  295   382     1
  295   384     1
  295   392     1
  296   299     1
  296   303     1
  297   300     1
  297   302     1
  297   304     1
  298   301     1
  298   305     1
  298   307     1
  298   393     1
  299   302     1
  299   304     1
  299   392     1
  299   394     1
  299   400     1
  300   303     1
  300   307     1
  300   391     1
  300   395     1
  300   399     1
  300   401     1
  301   304     1
  301   306     1
  301   308     1
  301   392     1
  301   394     1
  301   398     1
  301   402     1
  302   305     1
  302   309     1
  302   311     1
  302   393     1
  302   399     1
  302   401     1
  303   306     1
  303   308     1
  303   400     1
  304   307     1
  304   311     1
  305   308     1
  305   310     1
  305   312     1
  306   309     1
  306   313     1
  306   315     1
  306   401     1
  307   310     1
  307   312     1
  307   400     1
  307   402     1
  307   408     1
  308   311     1
  308   315     1
  308   399     1
  308   403     1
  308   407     1
  308   409     1
  309   312     1
  309   314     1
  309   316     1
  309   400     1
  309   402     1
  309   406     1
  309   410     1
  310   313     1
  310   317     1
  310   319     1
  310   401     1
  310   407     1
  310   409     1
  311   314     1
  311   316     1
  311   408     1
  312   315     1
  312   319     1
  313   316     1
  313   318     1
  313   320     1
  314   317     1
  314   321     1
  314   323     1
  314   409     1
  315   318     1
  315   320     1
  315   408     1
  315   410     1
  315   416     1
  316   319     1
  316   323     1
  316   407     1
  316   411     1
  316   415     1
  316   417     1
  317   320     1
  317   322     1
  317   324     1
  317   408     1
  317   410     1
  317   414     1
  317   418     1
  318   321     1
  318   325     1
  318   327     1
  318   409     1
  318   415     1
  318   417     1
  319   322     1
  319   324     1
  319   416     1
  320   323     1
  320   327     1
  321   324     1
  321   326     1
  321   328     1
  322   325     1
  322   329     1
  322   331     1
  322   417     1
  323   326     1
  323   328     1
  323   416     1
  323   418     1
  323   424     1
  324   327     1
  324   331     1
  324   415     1
  324   419     1
  324   423     1
  324   425     1
  325   328     1
  325   330     1
  325   332     1
  325   416     1
  325   418     1
  325   422     1
  325   426     1
  326   329     1
  326   333     1
  326   335     1
  326   417     1
  326   423     1
  326   425     1
  327   330     1
  327   332     1
  327   424     1
  328   331     1
  328   335     1
  329   332     1
  329   334     1
  329   336     1
  330   333     1
  330   337     1
  330   339     1
  330   425     1
  331   334     1
  331   336     1
  331   424     1
  331   426     1
  331   432     1
  332   335     1
  332   339     1
  332   423     1
  332   427     1
  332   431     1
  332   433     1
  333   336     1
  333   338     1
  333   340     1
  333   424     1
  333   426     1
  333   430     1
  333   434     1
  334   337     1
  334   341     1
  334   343     1
  334   425     1
  334   431     1
  334   433     1
  335   338     1
  335   340     1
  335   432     1
  336   339     1
  336   343     1
  337   340     1
  337   342     1
  337   344     1
  338   341     1
  338   345     1
  338   347     1
  338   433     1
  339   342     1
  339   344     1
  339   432     1
  339   434     1
  339   440     1
  340   343     1
  340   347     1
  340   431     1
  340   435     1
  340   439     1
  340   441     1
  341   344     1
  341   346     1
  341   348     1
  341   432     1
  341   434     1
  341   438     1
  341   442     1
  342   345     1
  342   349     1
  342   351     1
  342   433     1
  342   439     1
  342   441     1
  343   346     1
  343   348     1
  343   440     1
  344   347     1
  344   351     1
  345   348     1
  345   350     1
  345   352     1
  346   349     1
  346   353     1
  346   355     1
  346   441     1
  347   350     1
  347   352     1
  347   440     1
  347   442     1
  347   448     1
  348   351     1
  348   355     1
  348   439     1
  348   443     1
  348   447     1
  348   449     1
  349   352     1
  349   354     1
  349   356     1
  349   440     1
  349   442     1
  349   446     1
  349   450     1
  350   353     1
  350   357     1
  350   359     1
  350   441     1
  350   447     1
  350   449     1
  351   354     1
  351   356     1
  351   448     1
  352   355     1
  352   359     1
  353   356     1
  353   358     1
  353   360     1
  354   357     1
  354   361     1
  354   363     1
  354   449     1
  355   358     1
  355   360     1
  355   448     1
  355   450     1
  355   456     1
  356   359     1
  356   363     1
  356   447     1
  356   451     1
  356   455     1
  356   457     1
  357   360     1
  357   362     1
  357   364     1
  357   448     1
  357   450     1
  357   454     1
  357   458     1
  358   361     1
  358   365     1
  358   367     1
  358   449     1
  358   455     1
  358   457     1
  359   362     1
  359   364     1
  359   456     1
  360   363     1
  360   367     1
  361   364     1
  361   366     1
  361   368     1
  362   365     1
  362   369     1
  362   371     1
  362   457     1
  363   366     1
  363   368     1
  363   456     1
  363   458     1
  363   464     1
  364   367     1
  364   371     1
  364   455     1
  364   459     1
  364   463     1
  364   465     1
  365   368     1
  365   370     1
  365   372     1
  365   456     1
  365   458     1
  365   462     1
  365   466     1
  366   369     1
  366   373     1
  366   375     1
  366   457     1
  366   463     1
  366   465     1
  367   370     1
  367   372     1
  367   464     1
  368   371     1
  368   375     1
  369   372     1
  369   374     1
  369   376     1
  370   373     1
  370   377     1
  370   379     1
  370   465     1
  371   374     1
  371   376     1
  371   464     1
  371   466     1
  371   472     1
  372   375     1
  372   379     1
  372   463     1
  372   467     1
  372   471     1
  372   473     1
  373   376     1
  373   378     1
  373   380     1
  373   464     1
  373   466     1
  373   470     1
  373   474     1
  374   377     1
  374   381     1
  374   383     1
  374   465     1
  374   471     1
  374   473     1
  375   378     1
  375   380     1
  375   472     1
  376   379     1
  376   383     1
  377   380     1
  377   382     1
  377   384     1
  378   381     1
  378   473     1
  379   382     1
  379   384     1
  379   472     1
  379   474     1
  379   480     1
  380   383     1
  380   385     1
  380   471     1
  380   475     1
  380   479     1
  381   384     1
  381   386     1
  381   472     1
  381   474     1
  381   478     1
  382   385     1
  382   473     1
  382   479     1
  383   480     1
  385   388     1
  385   390     1
  385   392     1
  385   474     1
  385   478     1
  386   389     1
  386   393     1
  386   395     1
  386   477     1
  386   479     1
  386   481     1
  387   390     1
  387   392     1
  387   474     1
  387   476     1
  387   480     1
  387   482     1
  387   488     1
  387   576     1
  388   391     1
  388   395     1
  388   477     1
  388   479     1
  388   483     1
  388   487     1
  388   489     1
  388   575     1
  389   392     1
  389   394     1
  389   396     1
  389   478     1
  389   482     1
  389   486     1
  389   490     1
  389   576     1
  390   393     1
  390   397     1
  390   399     1
  390   481     1
  390   487     1
  390   489     1
  391   394     1
  391   396     1
  391   478     1
  391   480     1
  391   488     1
  392   395     1
  392   399     1
  393   396     1
  393   398     1
  393   400     1
  394   397     1
  394   401     1
  394   403     1
  394   489     1
  395   398     1
  395   400     1
  395   488     1
  395   490     1
  395   496     1
  396   399     1
  396   403     1
  396   487     1
  396   491     1
  396   495     1
  396   497     1
  397   400     1
  397   402     1
  397   404     1
  397   488     1
  397   490     1
  397   494     1
  397   498     1
  398   401     1
  398   405     1
  398   407     1
  398   489     1
  398   495     1
  398   497     1
  399   402     1
  399   404     1
  399   496     1
  400   403     1
  400   407     1
  401   404     1
  401   406     1
  401   408     1
  402   405     1
  402   409     1
  402   411     1
  402   497     1
  403   406     1
  403   408     1
  403   496     1
  403   498     1
  403   504     1
  404   407     1
  404   411     1
  404   495     1
  404   499     1
  404   503     1
  404   505     1
  405   408     1
  405   410     1
  405   412     1
  405   496     1
  405   498     1
  405   502     1
  405   506     1
  406   409     1
  406   413     1
  406   415     1
  406   497     1
  406   503     1
  406   505     1
  407   410     1
  407   412     1
  407   504     1
  408   411     1
  408   415     1
  409   412     1
  409   414     1
  409   416     1
  410   413     1
  410   417     1
  410   419     1
  410   505     1
  411   414     1
  411   416     1
  411   504     1
  411   506     1
  411   512     1
  412   415     1
  412   419     1
  412   503     1
  412   507     1
  412   511     1
  412   513     1
  413   416     1
  413   418     1
  413   420     1
  413   504     1
  413   506     1
  413   510     1
  413   514     1
  414   417     1
  414   421     1
  414   423     1
  414   505     1
  414   511     1
  414   513     1
  415   418     1
  415   420     1
  415   512     1
  416   419     1
  416   423     1
  417   420     1
  417   422     1
  417   424     1
  418   421     1
  418   425     1
  418   427     1
  418   513     1
  419   422     1
  419   424     1
  419   512     1
  419   514     1
  419   520     1
  420   423     1
  420   427     1
  420   511     1
  420   515     1
  420   519     1
  420   521     1
  421   424     1
  421   426     1
  421   428     1
  421   512     1
  421   514     1
  421   518     1
  421   522     1
  422   425     1
  422   429     1
  422   431     1
  422   513     1
  422   519     1
  422   521     1
  423   426     1
  423   428     1
  423   520     1
  424   427     1
  424   431     1
  425   428     1
  425   430     1
  425   432     1
  426   429     1
  426   433     1
  426   435     1
  426   521     1
  427   430     1
  427   432     1
  427   520     1
  427   522     1
  427   528     1
  428   431     1
  428   435     1
  428   519     1
  428   523     1
  428   527     1
  428   529     1
  429   432     1
  429   434     1
  429   436     1
  429   520     1
  429   522     1
  429   526     1
  429   530     1
  430   433     1
  430   437     1
  430   439     1
  430   521     1
  430   527     1
  430   529     1
  431   434     1
  431   436     1
  431   528     1
  432   435     1
  432   439     1
  433   436     1
  433   438     1
  433   440     1
  434   437     1
  434   441     1
  434   443     1
  434   529     1
  435   438     1
  435   440     1
  435   528     1
  435   530     1
  435   536     1
  436   439     1
  436   443     1
  436   527     1
  436   531     1
  436   535     1
  436   537     1
  437   440     1
  437   442     1
  437   444     1
  437   528     1
  437   530     1
  437   534     1
  437   538     1
  438   441     1
  438   445     1
  438   447     1
  438   529     1
  438   535     1
  438   537     1
  439   442     1
  439   444     1
  439   536     1
  440   443     1
  440   447     1
  441   444     1
  441   446     1
  441   448     1
  442   445     1
  442   449     1
  442   451     1
  442   537     1
  443   446     1
  443   448     1
  443   536     1
  443   538     1
  443   544     1
  444   447     1
  444   451     1
  444   535     1
  444   539     1
  444   543     1
  444   545     1
  445   448     1
  445   450     1
  445   452     1
  445   536     1
  445   538     1
  445   542     1
  445   546     1
  446   449     1
  446   453     1
  446   455     1
  446   537     1
  446   543     1
  446   545     1
  447   450     1
  447   452     1
  447   544     1
  448   451     1
  448   455     1
  449   452     1
  449   454     1
  449   456     1
  450   453     1
  450   457     1
  450   459     1
  450   545     1
  451   454     1
  451   456     1
  451   544     1
  451   546     1
  451   552     1
  452   455     1
  452   459     1
  452   543     1
  452   547     1
  452   551     1
  452   553     1
  453   456     1
  453   458     1
  453   460     1
  453   544     1
  453   546     1
  453   550     1
  453   554     1
  454   457     1
  454   461     1
  454   463     1
  454   545     1
  454   551     1
  454   553     1
  455   458     1
  455   460     1
  455   552     1
  456   459     1
  456   463     1
  457   460     1
  457   462     1
  457   464     1
  458   461     1
  458   465     1
  458   467     1
  458   553     1
  459   462     1
  459   464     1
  459   552     1
  459   554     1
  459   560     1
  460   463     1
  460   467     1
  460   551     1
  460   555     1
  460   559     1
  460   561     1
  461   464     1
  461   466     1
  461   468     1
  461   552     1
  461   554     1
  461   558     1
  461   562     1
  462   465     1
  462   469     1
  462   471     1
  462   553     1
  462   559     1
  462   561     1
  463   466     1
  463   468     1
  463   560     1
  464   467     1
  464   471     1
  465   468     1
  465   470     1
  465   472     1
  466   469     1
  466   473     1
  466   475     1
  466   561     1
  467   470     1
  467   472     1
  467   560     1
  467   562     1
  467   568     1
  468   471     1
  468   475     1
  468   559     1
  468   563     1
  468   567     1
  468   569     1
  469   472     1
  469   474     1
  469   476     1
  469   560     1
  469   562     1
  469   566     1
  469   570     1
  470   473     1
  470   477     1
  470   479     1
  470   561     1
  470   567     1
  470   569     1
  471   474     1
  471   476     1
  471   568     1
  472   475     1
  472   479     1
  473   476     1
  473   478     1
  473   480     1
  474   477     1
  474   569     1
  475   478     1
  475   480     1
  475   568     1
  475   570     1
  475   576     1
  476   479     1
  476   481     1
  476   567     1
  476   571     1
  476   575     1
  477   480     1
  477   482     1
  477   568     1
  477   570     1
  477   574     1
  478   481     1
  478   569     1
  478   575     1
  479   576     1
  481   484     1
  481   486     1
  481   488     1
  481   570     1
  481   574     1
  482   485     1
  482   489     1
  482   491     1
  482   573     1
  482   575     1
  482   577     1
  483   486     1
  483   488     1
  483   570     1
  483   572     1
  483   576     1
  483   578     1
  483   584     1
  483   672     1
  484   487     1
  484   491     1
  484   573     1
  484   575     1
  484   579     1
  484   583     1
  484   585     1
  484   671     1
  485   488     1
  485   490     1
  485   492     1
  485   574     1
  485   578     1
  485   582     1
  485   586     1
  485   672     1
  486   489     1
  486   493     1
  486   495     1
  486   577     1
  486   583     1
  486   585     1
  487   490     1
  487   492     1
  487   574     1
  487   576     1
  487   584     1
  488   491     1
  488   495     1
  489   492     1
  489   494     1
  489   496     1
  490   493     1
  490   497     1
  490   499     1
  490   585     1
  491   494     1
  491   496     1
  491   584     1
  491   586     1
  491   592     1
  492   495     1
  492   499     1
  492   583     1
  492   587     1
  492   591     1
  492   593     1
  493   496     1
  493   498     1
  493   500     1
  493   584     1
  493   586     1
  493   590     1
  493   594     1
  494   497     1
  494   501     1
  494   503     1
  494   585     1
  494   591     1
  494   593     1
  495   498     1
  495   500     1
  495   592     1
  496   499     1
  496   503     1
  497   500     1
  497   502     1
  497   504     1
  498   501     1
  498   505     1
  498   507     1
  498   593     1
  499   502     1
  499   504     1
  499   592     1
  499   594     1
  499   600     1
  500   503     1
  500   507     1
  500   591     1
  500   595     1
  500   599     1
  500   601     1
  501   504     1
  501   506     1
  501   508     1
  501   592     1
  501   594     1
  501   598     1
  501   602     1
  502   505     1
  502   509     1
  502   511     1
  502   593     1
  502   599     1
  502   601     1
  503   506     1
  503   508     1
  503   600     1
  504   507     1
  504   511     1
  505   508     1
  505   510     1
  505   512     1
  506   509     1
  506   513     1
  506   515     1
  506   601     1
  507   510     1
  507   512     1
  507   600     1
  507   602     1
  507   608     1
  508   511     1
  508   515     1
  508   599     1
  508   603     1
  508   607     1
  508   609     1
  509   512     1
  509   514     1
  509   516     1
  509   600     1
  509   602     1
  509   606     1
  509   610     1
  510   513     1
  510   517     1
  510   519     1
  510   601     1
  510   607     1
  510   609     1
  511   514     1
  511   516     1
  511   608     1
  512   515     1
  512   519     1
  513   516     1
  513   518     1
  513   520     1
  514   517     1
  514   521     1
  514   523     1
  514   609     1
  515   518     1
  515   520     1
  515   608     1
  515   610     1
  515   616     1
  516   519     1
  516   523     1
  516   607     1
  516   611     1
  516   615     1
  516   617     1
  517   520     1
  517   522     1
  517   524     1
  517   608     1
  517   610     1
  517   614     1
  517   618     1
  518   521     1
  518   525     1
  518   527     1
  518   609     1
  518   615     1
  518   617     1
  519   522     1
  519   524     1
  519   616     1
  520   523     1
  520   527     1
  521   524     1
  521   526     1
  521   528     1
  522   525     1
  522   529     1
  522   531     1
  522   617     1
  523   526     1
  523   528     1
  523   616     1
  523   618     1
  523   624     1
  524   527     1
  524   531     1
  524   615     1
  524   619     1
  524   623     1
  524   625     1
  525   528     1
  525   530     1
  525   532     1
  525   616     1
  525   618     1
  525   622     1
  525   626     1
  526   529     1
  526   533     1
  526   535     1
  526   617     1
  526   623     1
  526   625     1
  527   530     1
  527   532     1
  527   624     1
  528   531     1
  528   535     1
  529   532     1
  529   534     1
  529   536     1
  530   533     1
  530   537     1
  530   539     1
  530   625     1
  531   534     1
  531   536     1
  531   624     1
  531   626     1
  531   632     1
  532   535     1
  532   539     1
  532   623     1
  532   627     1
  532   631     1
  532   633     1
  533   536     1
  533   538     1
  533   540     1
  533   624     1
  533   626     1
  533   630     1
  533   634     1
  534   537     1
  534   541     1
  534   543     1
  534   625     1
  534   631     1
  534   633     1
  535   538     1
  535   540     1
  535   632     1
  536   539     1
  536   543     1
  537   540     1
  537   542     1
  537   544     1
  538   541     1
  538   545     1
  538   547     1
  538   633     1
  539   542     1
  539   544     1
  539   632     1
  539   634     1
  539   640     1
  540   543     1
  540   547     1
  540   631     1
  540   635     1
  540   639     1
  540   641     1
  541   544     1
  541   546     1
  541   548     1
  541   632     1
  541   634     1
  541   638     1
  541   642     1
  542   545     1
  542   549     1
  542   551     1
  542   633     1
  542   639     1
  542   641     1
  543   546     1
  543   548     1
  543   640     1
  544   547     1
  544   551     1
  545   548     1
  545   550     1
  545   552     1
  546   549     1
  546   553     1
  546   555     1
  546   641     1
  547   550     1
  547   552     1
  547   640     1
  547   642     1
  547   648     1
  548   551     1
  548   555     1
  548   639     1
  548   643     1
  548   647     1
  548   649     1
  549   552     1
  549   554     1
  549   556     1
  549   640     1
  549   642     1
  549   646     1
  549   650     1
  550   553     1
  550   557     1
  550   559     1
  550   641     1
  550   647     1
  550   649     1
  551   554     1
  551   556     1
  551   648     1
  552   555     1
  552   559     1
  553   556     1
  553   558     1
  553   560     1
  554   557     1
  554   561     1
  554   563     1
  554   649     1
  555   558     1
  555   560     1
  555   648     1
  555   650     1
  555   656     1
  556   559     1
  556   563     1
  556   647     1
  556   651     1
  556   655     1
  556   657     1
  557   560     1
  557   562     1
  557   564     1
  557   648     1
  557   650     1
  557   654     1
  557   658     1
  558   561     1
  558   565     1
  558   567     1
  558   649     1
  558   655     1
  558   657     1
  559   562     1
  559   564     1
  559   656     1
  560   563     1
  560   567     1
  561   564     1
  561   566     1
  561   568     1
  562   565     1
  562   569     1
  562   571     1
  562   657     1
  563   566     1
  563   568     1
  563   656     1
  563   658     1
  563   664     1
  564   567     1
  564   571     1
  564   655     1
  564   659     1
  564   663     1
  564   665     1
  565   568     1
  565   570     1
  565   572     1
  565   656     1
  565   658     1
  565   662     1
  565   666     1
  566   569     1
  566   573     1
  566   575     1
  566   657     1
  566   663     1
  566   665     1
  567   570     1
  567   572     1
  567   664     1
  568   571     1
  568   575     1
  569   572     1
  569   574     1
  569   576     1
  570   573     1
  570   665     1
  571   574     1
  571   576     1
  571   664     1
  571   666     1
  571   672     1
  572   575     1
  572   577     1
  572   663     1
  572   667     1
  572   671     1
  573   576     1
  573   578     1
  573   664     1
  573   666     1
  573   670     1
  574   577     1
  574   665     1
  574   671     1
  575   672     1
  577   580     1
  577   582     1
  577   584     1
  577   666     1
  577   670     1
  578   581     1
  578   585     1
  578   587     1
  578   669     1
  578   671     1
  578   673     1
  579   582     1
  579   584     1
  579   666     1
  579   668     1
  579   672     1
  579   674     1
  579   680     1
  579   768     1
  580   583     1
  580   587     1
  580   669     1
  580   671     1
  580   675     1
  580   679     1
  580   681     1
  580   767     1
  581   584     1
  581   586     1
  581   588     1
  581   670     1
  581   674     1
  581   678     1
  581   682     1
  581   768     1
  582   585     1
  582   589     1
  582   591     1
  582   673     1
  582   679     1
  582   681     1
  583   586     1
  583   588     1
  583   670     1
  583   672     1
  583   680     1
  584   587     1
  584   591     1
  585   588     1
  585   590     1
  585   592     1
  586   589     1
  586   593     1
  586   595     1
  586   681     1
  587   590     1
  587   592     1
  587   680     1
  587   682     1
  587   688     1
  588   591     1
  588   595     1
  588   679     1
  588   683     1
  588   687     1
  588   689     1
  589   592     1
  589   594     1
  589   596     1
  589   680     1
  589   682     1
  589   686     1
  589   690     1
  590   593     1
  590   597     1
  590   599     1
  590   681     1
  590   687     1
  590   689     1
  591   594     1
  591   596     1
  591   688     1
  592   595     1
  592   599     1
  593   596     1
  593   598     1
  593   600     1
  594   597     1
  594   601     1
  594   603     1
  594   689     1
  595   598     1
  595   600     1
  595   688     1
  595   690     1
  595   696     1
  596   599     1
  596   603     1
  596   687     1
  596   691     1
  596   695     1
  596   697     1
  597   600     1
  597   602     1
  597   604     1
  597   688     1
  597   690     1
  597   694     1
  597   698     1
  598   601     1
  598   605     1
  598   607     1
  598   689     1
  598   695     1
  598   697     1
  599   602     1
  599   604     1
  599   696     1
  600   603     1
  600   607     1
  601   604     1
  601   606     1
  601   608     1
  602   605     1
  602   609     1
  602   611     1
  602   697     1
  603   606     1
  603   608     1
  603   696     1
  603   698     1
  603   704     1
  604   607     1
  604   611     1
  604   695     1
  604   699     1
  604   703     1
  604   705     1
  605   608     1
  605   610     1
  605   612     1
  605   696     1
  605   698     1
  605   702     1
  605   706     1
  606   609     1
  606   613     1
  606   615     1
  606   697     1
  606   703     1
  606   705     1
  607   610     1
  607   612     1
  607   704     1
  608   611     1
  608   615     1
  609   612     1
  609   614     1
  609   616     1
  610   613     1
  610   617     1
  610   619     1
  610   705     1
  611   614     1
  611   616     1
  611   704     1
  611   706     1
  611   712     1
  612   615     1
  612   619     1
  612   703     1
  612   707     1
  612   711     1
  612   713     1
  613   616     1
  613   618     1
  613   620     1
  613   704     1
  613   706     1
  613   710     1
  613   714     1
  614   617     1
  614   621     1
  614   623     1
  614   705     1
  614   711     1
  614   713     1
  615   618     1
  615   620     1
  615   712     1
  616   619     1
  616   623     1
  617   620     1
  617   622     1
  617   624     1
  618   621     1
  618   625     1
  618   627     1
  618   713     1
  619   622     1
  619   624     1
  619   712     1
  619   714     1
  619   720     1
  620   623     1
  620   627     1
  620   711     1
  620   715     1
  620   719     1
  620   721     1
  621   624     1
  621   626     1
  621   628     1
  621   712     1
  621   714     1
  621   718     1
  621   722     1
  622   625     1
  622   629     1
  622   631     1
  622   713     1
  622   719     1
  622   721     1
  623   626     1
  623   628     1
  623   720     1
  624   627     1
  624   631     1
  625   628     1
  625   630     1
  625   632     1
  626   629     1
  626   633     1
  626   635     1
  626   721     1
  627   630     1
  627   632     1
  627   720     1
  627   722     1
  627   728     1
  628   631     1
  628   635     1
  628   719     1
  628   723     1
  628   727     1
  628   729     1
  629   632     1
  629   634     1
  629   636     1
  629   720     1
  629   722     1
  629   726     1
  629   730     1
  630   633     1
  630   637     1
  630   639     1
  630   721     1
  630   727     1
  630   729     1
  631   634     1
  631   636     1
  631   728     1
  632   635     1
  632   639     1
  633   636     1
  633   638     1
  633   640     1
  634   637     1
  634   641     1
  634   643     1
  634   729     1
  635   638     1
  635   640     1
  635   728     1
  635   730     1
  635   736     1
  636   639     1
  636   643     1
  636   727     1
  636   731     1
  636   735     1
  636   737     1
  637   640     1
  637   642     1
  637   644     1
  637   728     1
  637   730     1
  637   734     1
  637   738     1
  638   641     1
  638   645     1
  638   647     1
  638   729     1
  638   735     1
  638   737     1
  639   642     1
  639   644     1
  639   736     1
  640   643     1
  640   647     1
  641   644     1
  641   646     1
  641   648     1
  642   645     1
  642   649     1
  642   651     1
  642   737     1
  643   646     1
  643   648     1
  643   736     1
  643   738     1
  643   744     1
  644   647     1
  644   651     1
  644   735     1
  644   739     1
  644   743     1
  644   745     1
  645   648     1
  645   650     1
  645   652     1
  645   736     1
  645   738     1
  645   742     1
  645   746     1
  646   649     1
  646   653     1
  646   655     1
  646   737     1
  646   743     1
  646   745     1
  647   650     1
  647   652     1
  647   744     1
  648   651     1
  648   655     1
  649   652     1
  649   654     1
  649   656     1
  650   653     1
  650   657     1
  650   659     1
  650   745     1
  651   654     1
  651   656     1
  651   744     1
  651   746     1
  651   752     1
  652   655     1
  652   659     1
  652   743     1
  652   747     1
  652   751     1
  652   753     1
  653   656     1
  653   658     1
  653   660     1
  653   744     1
  653   746     1
  653   750     1
  653   754     1
  654   657     1
  654   661     1
  654   663     1
  654   745     1
  654   751     1
  654   753     1
  655   658     1
  655   660     1
  655   752     1
  656   659     1
  656   663     1
  657   660     1
  657   662     1
  657   664     1
  658   661     1
  658   665     1
  658   667     1
  658   753     1
  659   662     1
  659   664     1
  659   752     1
  659   754     1
  659   760     1
  660   663     1
  660   667     1
  660   751     1
  660   755     1
  660   759     1
  660   761     1
  661   664     1
  661   666     1
  661   668     1
  661   752     1
  661   754     1
  661   758     1
  661   762     1
  662   665     1
  662   669     1
  662   671     1
  662   753     1
  662   759     1
  662   761     1
  663   666     1
  663   668     1
  663   760     1
  664   667     1
  664   671     1
  665   668     1
  665   670     1
  665   672     1
  666   669     1
  666   761     1
  667   670     1
  667   672     1
  667   760     1
  667   762     1
  667   768     1
  668   671     1
  668   673     1
  668   759     1
  668   763     1
  668   767     1
  669   672     1
  669   674     1
  669   760     1
  669   762     1
  669   766     1
  670   673     1
  670   761     1
  670   767     1
  671   768     1
  673   676     1
  673   678     1
  673   680     1
  673   762     1
  673   766     1
  674   677     1
  674   681     1
  674   683     1
  674   765     1
  674   767     1
  674   769     1
  675   678     1
  675   680     1
  675   762     1
  675   764     1
  675   768     1
  675   770     1
  675   776     1
  675   864     1
  676   679     1
  676   683     1
  676   765     1
  676   767     1
  676   771     1
  676   775     1
  676   777     1
  676   863     1
  677   680     1
  677   682     1
  677   684     1
  677   766     1
  677   770     1
  677   774     1
  677   778     1
  677   864     1
  678   681     1
  678   685     1
  678   687     1
  678   769     1
  678   775     1
  678   777     1
  679   682     1
  679   684     1
  679   766     1
  679   768     1
  679   776     1
  680   683     1
  680   687     1
  681   684     1
  681   686     1
  681   688     1
  682   685     1
  682   689     1
  682   691     1
  682   777     1
  683   686     1
  683   688     1
  683   776     1
  683   778     1
  683   784     1
  684   687     1
  684   691     1
  684   775     1
  684   779     1
  684   783     1
  684   785     1
  685   688     1
  685   690     1
  685   692     1
  685   776     1
  685   778     1
  685   782     1
  685   786     1
  686   689     1
  686   693     1
  686   695     1
  686   777     1
  686   783     1
  686   785     1
  687   690     1
  687   692     1
  687   784     1
  688   691     1
  688   695     1
  689   692     1
  689   694     1
  689   696     1
  690   693     1
  690   697     1
  690   699     1
  690   785     1
  691   694     1
  691   696     1
  691   784     1
  691   786     1
  691   792     1
  692   695     1
  692   699     1
  692   783     1
  692   787     1
  692   791     1
  692   793     1
  693   696     1
  693   698     1
  693   700     1
  693   784     1
  693   786     1
  693   790     1
  693   794     1
  694   697     1
  694   701     1
  694   703     1
  694   785     1
  694   791     1
  694   793     1
  695   698     1
  695   700     1
  695   792     1
  696   699     1
  696   703     1
  697   700     1
  697   702     1
  697   704     1
  698   701     1
  698   705     1
  698   707     1
  698   793     1
  699   702     1
  699   704     1
  699   792     1
  699   794     1
  699   800     1
  700   703     1
  700   707     1
  700   791     1
  700   795     1
  700   799     1
  700   801     1
  701   704     1
  701   706     1
  701   708     1
  701   792     1
  701   794     1
  701   798     1
  701   802     1
  702   705     1
  702   709     1
  702   711     1
  702   793     1
  702   799     1
  702   801     1
  703   706     1
  703   708     1
  703   800     1
  704   707     1
  704   711     1
  705   708     1
  705   710     1
  705   712     1
  706   709     1
  706   713     1
  706   715     1
  706   801     1
  707   710     1
  707   712     1
  707   800     1
  707   802     1
  707   808     1
  708   711     1
  708   715     1
  708   799     1
  708   803     1
  708   807     1
  708   809     1
  709   712     1
  709   714     1
  709   716     1
  709   800     1
  709   802     1
  709   806     1
  709   810     1
  710   713     1
  710   717     1
  710   719     1
  710   801     1
  710   807     1
  710   809     1
  711   714     1
  711   716     1
  711   808     1
  712   715     1
  712   719     1
  713   716     1
  713   718     1
  713   720     1
  714   717     1
  714   721     1
  714   723     1
  714   809     1
  715   718     1
  715   720     1
  715   808     1
  715   810     1
  715   816     1
  716   719     1
  716   723     1
  716   807     1
  716   811     1
  716   815     1
  716   817     1
  717   720     1
  717   722     1
  717   724     1
  717   808     1
  717   810     1
  717   814     1
  717   818     1
  718   721     1
  718   725     1
  718   727     1
  718   809     1
  718   815     1
  718   817     1
  719   722     1
  719   724     1
  719   816     1
  720   723     1
  720   727     1
  721   724     1
  721   726     1
  721   728     1
  722   725     1
  722   729     1
  722   731     1
  722   817     1
  723   726     1
  723   728     1
  723   816     1
  723   818     1
  723   824     1
  724   727     1
  724   731     1
  724   815     1
  724   819     1
  724   823     1
  724   825     1
  725   728     1
  725   730     1
  725   732     1
  725   816     1
  725   818     1
  725   822     1
  725   826     1
  726   729     1
  726   733     1
  726   735     1
  726   817     1
  726   823     1
  726   825     1
  727   730     1
  727   732     1
  727   824     1
  728   731     1
  728   735     1
  729   732     1
  729   734     1
  729   736     1
  730   733     1
  730   737     1
  730   739     1
  730   825     1
  731   734     1
  731   736     1
  731   824     1
  731   826     1
  731   832     1
  732   735     1
  732   739     1
  732   823     1
  732   827     1
  732   831     1
  732   833     1
  733   736     1
  733   738     1
  733   740     1
  733   824     1
  733   826     1
  733   830     1
  733   834     1
  734   737     1
  734   741     1
  734   743     1
  734   825     1
  734   831     1
  734   833     1
  735   738     1
  735   740     1
  735   832     1
  736   739     1
  736   743     1
  737   740     1
  737   742     1
  737   744     1
  738   741     1
  738   745     1
  738   747     1
  738   833     1
  739   742     1
  739   744     1
  739   832     1
  739   834     1
  739   840     1
  740   743     1
  740   747     1
  740   831     1
  740   835     1
  740   839     1
  740   841     1
  741   744     1
  741   746     1
  741   748     1
  741   832     1
  741   834     1
  741   838     1
  741   842     1
  742   745     1
  742   749     1
  742   751     1
  742   833     1
  742   839     1
  742   841     1
  743   746     1
  743   748     1
  743   840     1
  744   747     1
  744   751     1
  745   748     1
  745   750     1
  745   752     1
  746   749     1
  746   753     1
  746   755     1
  746   841     1
  747   750     1
  747   752     1
  747   840     1
  747   842     1
  747   848     1
  748   751     1
  748   755     1
  748   839     1
  748   843     1
  748   847     1
  748   849     1
  749   752     1
  749   754     1
  749   756     1
  749   840     1
  749   842     1
  749   846     1
  749   850     1
  750   753     1
  750   757     1
  750   759     1
  750   841     1
  750   847     1
  750   849     1
  751   754     1
  751   756     1
  751   848     1
  752   755     1
  752   759     1
  753   756     1
  753   758     1
  753   760     1
  754   757     1
  754   761     1
  754   763     1
  754   849     1
  755   758     1
  755   760     1
  755   848     1
  755   850     1
  755   856     1
  756   759     1
  756   763     1
  756   847     1
  756   851     1
  756   855     1
  756   857     1
  757   760     1
  757   762     1
  757   764     1
  757   848     1
  757   850     1
  757   854     1
  757   858     1
  758   761     1
  758   765     1
  758   767     1
  758   849     1
  758   855     1
  758   857     1
  759   762     1
  759   764     1
  759   856     1
  760   763     1
  760   767     1
  761   764     1
  761   766     1
  761   768     1
  762   765     1
  762   857     1
  763   766     1
  763   768     1
  763   856     1
  763   858     1
  763   864     1
  764   767     1
  764   769     1
  764   855     1
  764   859     1
  764   863     1
  765   768     1
  765   770     1
  765   856     1
  765   858     1
  765   862     1
  766   769     1
  766   857     1
  766   863     1
  767   864     1
  769   772     1
  769   774     1
  769   776     1
  769   858     1
  769   862     1
  770   773     1
  770   777     1
  770   779     1
  770   861     1
  770   863     1
  770   865     1
  771   774     1
  771   776     1
  771   858     1
  771   860     1
  771   864     1
  771   866     1
  771   872     1
  771   960     1
  772   775     1
  772   779     1
  772   861     1
  772   863     1
  772   867     1
  772   871     1
  772   873     1
  772   959     1
  773   776     1
  773   778     1
  773   780     1
  773   862     1
  773   866     1
  773   870     1
  773   874     1
  773   960     1
  774   777     1
  774   781     1
  774   783     1
  774   865     1
  774   871     1
  774   873     1
  775   778     1
  775   780     1
  775   862     1
  775   864     1
  775   872     1
  776   779     1
  776   783     1
  777   780     1
  777   782     1
  777   784     1
  778   781     1
  778   785     1
  778   787     1
  778   873     1
  779   782     1
  779   784     1
  779   872     1
  779   874     1
  779   880     1
  780   783     1
  780   787     1
  780   871     1
  780   875     1
  780   879     1
  780   881     1
  781   784     1
  781   786     1
  781   788     1
  781   872     1
  781   874     1
  781   878     1
  781   882     1
  782   785     1
  782   789     1
  782   791     1
  782   873     1
  782   879     1
  782   881     1
  783   786     1
  783   788     1
  783   880     1
  784   787     1
  784   791     1
  785   788     1
  785   790     1
  785   792     1
  786   789     1
  786   793     1
  786   795     1
  786   881     1
  787   790     1
  787   792     1
  787   880     1
  787   882     1
  787   888     1
  788   791     1
  788   795     1
  788   879     1
  788   883     1
  788   887     1
  788   889     1
  789   792     1
  789   794     1
  789   796     1
  789   880     1
  789   882     1
  789   886     1
  789   890     1
  790   793     1
  790   797     1
  790   799     1
  790   881     1
  790   887     1
  790   889     1
  791   794     1
  791   796     1
  791   888     1
  792   795     1
  792   799     1
  793   796     1
  793   798     1
  793   800     1
  794   797     1
  794   801     1
  794   803     1
  794   889     1
  795   798     1
  795   800     1
  795   888     1
  795   890     1
  795   896     1
  796   799     1
  796   803     1
  796   887     1
  796   891     1
  796   895     1
  796   897     1
  797   800     1
  797   802     1
  797   804     1
  797   888     1
  797   890     1
  797   894     1
  797   898     1
  798   801     1
  798   805     1
  798   807     1
  798   889     1
  798   895     1
  798   897     1
  799   802     1
  799   804     1
  799   896     1
  800   803     1
  800   807     1
  801   804     1
  801   806     1
  801   808     1
  802   805     1
  802   809     1
  802   811     1
  802   897     1
  803   806     1
  803   808     1
  803   896     1
  803   898     1
  803   904     1
  804   807     1
  804   811     1
  804   895     1
  804   899     1
  804   903     1
  804   905     1
  805   808     1
  805   810     1
  805   812     1
  805   896     1
  805   898     1
  805   902     1
  805   906     1
  806   809     1
  806   813     1
  806   815     1
  806   897     1
  806   903     1
  806   905     1
  807   810     1
  807   812     1
  807   904     1
  808   811     1
  808   815     1
  809   812     1
  809   814     1
  809   816     1
  810   813     1
  810   817     1
  810   819     1
  810   905     1
  811   814     1
  811   816     1
  811   904     1
  811   906     1
  811   912     1
  812   815     1
  812   819     1
  812   903     1
  812   907     1
  812   911     1
  812   913     1
  813   816     1
  813   818     1
  813   820     1
  813   904     1
  813   906     1
  813   910     1
  813   914     1
  814   817     1
  814   821     1
  814   823     1
  814   905     1
  814   911     1
  814   913     1
  815   818     1
  815   820     1
  815   912     1
  816   819     1
  816   823     1
  817   820     1
  817   822     1
  817   824     1
  818   821     1
  818   825     1
  818   827     1
  818   913     1
  819   822     1
  819   824     1
  819   912     1
  819   914     1
  819   920     1
  820   823     1
  820   827     1
  820   911     1
  820   915     1
  820   919     1
  820   921     1
  821   824     1
  821   826     1
  821   828     1
  821   912     1
  821   914     1
  821   918     1
  821   922     1
  822   825     1
  822   829     1
  822   831     1
  822   913     1
  822   919     1
  822   921     1
  823   826     1
  823   828     1
  823   920     1
  824   827     1
  824   831     1
  825   828     1
  825   830     1
  825   832     1
  826   829     1
  826   833     1
  826   835     1
  826   921     1
  827   830     1
  827   832     1
  827   920     1
  827   922     1
  827   928     1
  828   831     1
  828   835     1
  828   919     1
  828   923     1
  828   927     1
  828   929     1
  829   832     1
  829   834     1
  829   836     1
  829   920     1
  829   922     1
  829   926     1
  829   930     1
  830   833     1
  830   837     1
  830   839     1
  830   921     1
  830   927     1
  830   929     1
  831   834     1
  831   836     1
  831   928     1
  832   835     1
  832   839     1
  833   836     1
  833   838     1
  833   840     1
  834   837     1
  834   841     1
  834   843     1
  834   929     1
  835   838     1
  835   840     1
  835   928     1
  835   930     1
  835   936     1
  836   839     1
  836   843     1
  836   927     1
  836   931     1
  836   935     1
  836   937     1
  837   840     1
  837   842     1
  837   844     1
  837   928     1
  837   930     1
  837   934     1
  837   938     1
  838   841     1
  838   845     1
  838   847     1
  838   929     1
  838   935     1
  838   937     1
  839   842     1
  839   844     1
  839   936     1
  840   843     1
  840   847     1
  841   844     1
  841   846     1
  841   848     1
  842   845     1
  842   849     1
  842   851     1
  842   937     1
  843   846     1
  843   848     1
  843   936     1
  843   938     1
  843   944     1
  844   847     1
  844   851     1
  844   935     1
  844   939     1
  844   943     1
  844   945     1
  845   848     1
  845   850     1
  845   852     1
  845   936     1
  845   938     1
  845   942     1
  845   946     1
  846   849     1
  846   853     1
  846   855     1
  846   937     1
  846   943     1
  846   945     1
  847   850     1
  847   852     1
  847   944     1
  848   851     1
  848   855     1
  849   852     1
  849   854     1
  849   856     1
  850   853     1
  850   857     1
  850   859     1
  850   945     1
  851   854     1
  851   856     1
  851   944     1
  851   946     1
  851   952     1
  852   855     1
  852   859     1
  852   943     1
  852   947     1
  852   951     1
  852   953     1
  853   856     1
  853   858     1
  853   860     1
  853   944     1
  853   946     1
  853   950     1
  853   954     1
  854   857     1
  854   861     1
  854   863     1
  854   945     1
  854   951     1
  854   953     1
  855   858     1
  855   860     1
  855   952     1
  856   859     1
  856   863     1
  857   860     1
  857   862     1
  857   864     1
  858   861     1
  858   953     1
  859   862     1
  859   864     1
  859   952     1
  859   954     1
  859   960     1
  860   863     1
  860   865     1
  860   951     1
  860   955     1
  860   959     1
  861   864     1
  861   866     1
  861   952     1
  861   954     1
  861   958     1
  862   865     1
  862   953     1
  862   959     1
  863   960     1
  865   868     1
  865   870     1
  865   872     1
  865   954     1
  865   958     1
  866   869     1
  866   873     1
  866   875     1
  866   957     1
  866   959     1
  866   961     1
  867   870     1
  867   872     1
  867   954     1
  867   956     1
  867   960     1
  867   962     1
  867   968     1
  867  1056     1
  868   871     1
  868   875     1
  868   957     1
  868   959     1
  868   963     1
  868   967     1
  868   969     1
  868  1055     1
  869   872     1
  869   874     1
  869   876     1
  869   958     1
  869   962     1
  869   966     1
  869   970     1
  869  1056     1
  870   873     1
  870   877     1
  870   879     1
  870   961     1
  870   967     1
  870   969     1
  871   874     1
  871   876     1
  871   958     1
  871   960     1
  871   968     1
  872   875     1
  872   879     1
  873   876     1
  873   878     1
  873   880     1
  874   877     1
  874   881     1
  874   883     1
  874   969     1
  875   878     1
  875   880     1
  875   968     1
  875   970     1
  875   976     1
  876   879     1
  876   883     1
  876   967     1
  876   971     1
  876   975     1
  876   977     1
  877   880     1
  877   882     1
  877   884     1
  877   968     1
  877   970     1
  877   974     1
  877   978     1
  878   881     1
  878   885     1
  878   887     1
  878   969     1
  878   975     1
  878   977     1
  879   882     1
  879   884     1
  879   976     1
  880   883     1
  880   887     1
  881   884     1
  881   886     1
  881   888     1
  882   885     1
  882   889     1
  882   891     1
  882   977     1
  883   886     1
  883   888     1
  883   976     1
  883   978     1
  883   984     1
  884   887     1
  884   891     1
  884   975     1
  884   979     1
  884   983     1
  884   985     1
  885   888     1
  885   890     1
  885   892     1
  885   976     1
  885   978     1
  885   982     1
  885   986     1
  886   889     1
  886   893     1
  886   895     1
  886   977     1
  886   983     1
  886   985     1
  887   890     1
  887   892     1
  887   984     1
  888   891     1
  888   895     1
  889   892     1
  889   894     1
  889   896     1
  890   893     1
  890   897     1
  890   899     1
  890   985     1
  891   894     1
  891   896     1
  891   984     1
  891   986     1
  891   992     1
  892   895     1
  892   899     1
  892   983     1
  892   987     1
  892   991     1
  892   993     1
  893   896     1
  893   898     1
  893   900     1
  893   984     1
  893   986     1
  893   990     1
  893   994     1
  894   897     1
  894   901     1
  894   903     1
  894   985     1
  894   991     1
  894   993     1
  895   898     1
  895   900     1
  895   992     1
  896   899     1
  896   903     1
  897   900     1
  897   902     1
  897   904     1
  898   901     1
  898   905     1
  898   907     1
  898   993     1
  899   902     1
  899   904     1
  899   992     1
  899   994     1
  899  1000     1
  900   903     1
  900   907     1
  900   991     1
  900   995     1
  900   999     1
  900  1001     1
  901   904     1
  901   906     1
  901   908     1
  901   992     1
  901   994     1
  901   998     1
  901  1002     1
  902   905     1
  902   909     1
  902   911     1
  902   993     1
  902   999     1
  902  1001     1
  903   906     1
  903   908     1
  903  1000     1
  904   907     1
  904   911     1
  905   908     1
  905   910     1
  905   912     1
  906   909     1
  906   913     1
  906   915     1
  906  1001     1
  907   910     1
  907   912     1
  907  1000     1
  907  1002     1
  907  1008     1
  908   911     1
  908   915     1
  908   999     1
  908  1003     1
  908  1007     1
  908  1009     1
  909   912     1
  909   914     1
  909   916     1
  909  1000     1
  909  1002     1
  909  1006     1
  909  1010     1
  910   913     1
  910   917     1
  910   919     1
  910  1001     1
  910  1007     1
  910  1009     1
  911   914     1
  911   916     1
  911  1008     1
  912   915     1
  912   919     1
  913   916     1
  913   918     1
  913   920     1
  914   917     1
  914   921     1
  914   923     1
  914  1009     1
  915   918     1
  915   920     1
  915  1008     1
  915  1010     1
  915  1016     1
  916   919     1
  916   923     1
  916  1007     1
  916  1011     1
  916  1015     1
  916  1017     1
  917   920     1
  917   922     1
  917   924     1
  917  1008     1
  917  1010     1
  917  1014     1
  917  1018     1
  918   921     1
  918   925     1
  918   927     1
  918  1009     1
  918  1015     1
  918  1017     1
  919   922     1
  919   924     1
  919  1016     1
  920   923     1
  920   927     1
  921   924     1
  921   926     1
  921   928     1
  922   925     1
  922   929     1
  922   931     1
  922  1017     1
  923   926     1
  923   928     1
  923  1016     1
  923  1018     1
  923  1024     1
  924   927     1
  924   931     1
  924  1015     1
  924  1019     1
  924  1023     1
  924  1025     1
  925   928     1
  925   930     1
  925   932     1
  925  1016     1
  925  1018     1
  925  1022     1
  925  1026     1
  926   929     1
  926   933     1
  926   935     1
  926  1017     1
  926  1023     1
  926  1025     1
  927   930     1
  927   932     1
  927  1024     1
  928   931     1
  928   935     1
  929   932     1
  929   934     1
  929   936     1
  930   933     1
  930   937     1
  930   939     1
  930  1025     1
  931   934     1
  931   936     1
  931  1024     1
  931  1026     1
  931  1032     1
  932   935     1
  932   939     1
  932  1023     1
  932  1027     1
  932  1031     1
  932  1033     1
  933   936     1
  933   938     1
  933   940     1
  933  1024     1
  933  1026     1
  933  1030     1
  933  1034     1
  934   937     1
  934   941     1
  934   943     1
  934  1025     1
  934  1031     1
  934  1033     1
  935   938     1
  935   940     1
  935  1032     1
  936   939     1
  936   943     1
  937   940     1
  937   942     1
  937   944     1
  938   941     1
  938   945     1
  938   947     1
  938  1033     1
  939   942     1
  939   944     1
  939  1032     1
  939  1034     1
  939  1040     1
  940   943     1
  940   947     1
  940  1031     1
  940  1035     1
  940  1039     1
  940  1041     1
  941   944     1
  941   946     1
  941   948     1
  941  1032     1
  941  1034     1
  941  1038     1
  941  1042     1
  942   945     1
  942   949     1
  942   951     1
  942  1033     1
  942  1039     1
  942  1041     1
  943   946     1
  943   948     1
  943  1040     1
  944   947     1
  944   951     1
  945   948     1
  945   950     1
  945   952     1
  946   949     1
  946   953     1
  946   955     1
  946  1041     1
  947   950     1
  947   952     1
  947  1040     1
  947  1042     1
  947  1048     1
  948   951     1
  948   955     1
  948  1039     1
  948  1043     1
  948  1047     1
  948  1049     1
  949   952     1
  949   954     1
  949   956     1
  949  1040     1
  949  1042     1
  949  1046     1
  949  1050     1
  950   953     1
  950   957     1
  950   959     1
  950  1041     1
  950  1047     1
  950  1049     1
  951   954     1
  951   956     1
  951  1048     1
  952   955     1
  952   959     1
  953   956     1
  953   958     1
  953   960     1
  954   957     1
  954  1049     1
  955   958     1
  955   960     1
  955  1048     1
  955  1050     1
  955  1056     1
  956   959     1
  956   961     1
  956  1047     1
  956  1051     1
  956  1055     1
  957   960     1
  957   962     1
  957  1048     1
  957  1050     1
  957  1054     1
  958   961     1
  958  1049     1
  958  1055     1
  959  1056     1
  961   964     1
  961   966     1
  961   968     1
  961  1050     1
  961  1054     1
  962   965     1
  962   969     1
  962   971     1
  962  1053     1
  962  1055     1
  963   966     1
  963   968     1
  963  1050     1
  963  1052     1
  963  1056     1
  964   967     1
  964   971     1
  964  1053     1
  964  1055     1
  965   968     1
  965   970     1
  965   972     1
  965  1054     1
  966   969     1
  966   973     1
  966   975     1
  967   970     1
  967   972     1
  967  1054     1
  967  1056     1
  968   971     1
  968   975     1
  969   972     1
  969   974     1
  969   976     1
  970   973     1
  970   977     1
  970   979     1
  971   974     1
  971   976     1
  972   975     1
  972   979     1
  973   976     1
  973   978     1
  973   980     1
  974   977     1
  974   981     1
  974   983     1
  975   978     1
  975   980     1
  976   979     1
  976   983     1
  977   980     1
  977   982     1
  977   984     1
  978   981     1
  978   985     1
  978   987     1
  979   982     1
  979   984     1
  980   983     1
  980   987     1
  981   984     1
  981   986     1
  981   988     1
  982   985     1
  982   989     1
  982   991     1
  983   986     1
  983   988     1
  984   987     1
  984   991     1
  985   988     1
  985   990     1
  985   992     1
  986   989     1
  986   993     1
  986   995     1
  987   990     1
  987   992     1
  988   991     1
  988   995     1
  989   992     1
  989   994     1
  989   996     1
  990   993     1
  990   997     1
  990   999     1
  991   994     1
  991   996     1
  992   995     1
  992   999     1
  993   996     1
  993   998     1
  993  1000     1
  994   997     1
  994  1001     1
  994  1003     1
  995   998     1
  995  1000     1
  996   999     1
  996  1003     1
  997  1000     1
  997  1002     1
  997  1004     1
  998  1001     1
  998  1005     1
  998  1007     1
  999  1002     1
  999  1004     1
 1000  1003     1
 1000  1007     1
 1001  1004     1
 1001  1006     1
 1001  1008     1
 1002  1005     1
 1002  1009     1
 1002  1011     1
 1003  1006     1
 1003  1008     1
 1004  1007     1
 1004  1011     1
 1005  1008     1
 1005  1010     1
 1005  1012     1
 1006  1009     1
 1006  1013     1
 1006  1015     1
 1007  1010     1
 1007  1012     1
 1008  1011     1
 1008  1015     1
 1009  1012     1
 1009  1014     1
 1009  1016     1
 1010  1013     1
 1010  1017     1
 1010  1019     1
 1011  1014     1
 1011  1016     1
 1012  1015     1
 1012  1019     1
 1013  1016     1
 1013  1018     1
 1013  1020     1
 1014  1017     1
 1014  1021     1
 1014  1023     1
 1015  1018     1
 1015  1020     1
 1016  1019     1
 1016  1023     1
 1017  1020     1
 1017  1022     1
 1017  1024     1
 1018  1021     1
 1018  1025     1
 1018  1027     1
 1019  1022     1
 1019  1024     1
 1020  1023     1
 1020  1027     1
 1021  1024     1
 1021  1026     1
 1021  1028     1
 1022  1025     1
 1022  1029     1
 1022  1031     1
 1023  1026     1
 1023  1028     1
 1024  1027     1
 1024  1031     1
 1025  1028     1
 1025  1030     1
 1025  1032     1
 1026  1029     1
 1026  1033     1
 1026  1035     1
 1027  1030     1
 1027  1032     1
 1028  1031     1
 1028  1035     1
 1029  1032     1
 1029  1034     1
 1029  1036     1
 1030  1033     1
 1030  1037     1
 1030  1039     1
 1031  1034     1
 1031  1036     1
 1032  1035     1
 1032  1039     1
 1033  1036     1
 1033  1038     1
 1033  1040     1
 1034  1037     1
 1034  1041     1
 1034  1043     1
 1035  1038     1
 1035  1040     1
 1036  1039     1
 1036  1043     1
 1037  1040     1
 1037  1042     1
 1037  1044     1
 1038  1041     1
 1038  1045     1
 1038  1047     1
 1039  1042     1
 1039  1044     1
 1040  1043     1
 1040  1047     1
 1041  1044     1
 1041  1046     1
 1041  1048     1
 1042  1045     1
 1042  1049     1
 1042  1051     1
 1043  1046     1
 1043  1048     1
 1044  1047     1
 1044  1051     1
 1045  1048     1
 1045  1050     1
 1045  1052     1
 1046  1049     1
 1046  1053     1
 1046  1055     1
 1047  1050     1
 1047  1052     1
 1048  1051     1
 1048  1055     1
 1049  1052     1
 1049  1054     1
 1049  1056     1
 1050  1053     1
 1051  1054     1
 1051  1056     1
 1052  1055     1
 1053  1056     1

[ angles ] 
; ai	aj	ak	funct	th0	cth	S0	Kub
   96     1     2     5
   96     1   964     5
  964     1     2     5
    1     2     3     5
    1     2     7     5
    3     2     7     5
    2     3     4     5
   94     3     2     5
   94     3     4     5
    3     4     5     5
    3     4    97     5
    5     4    97     5
    4     5     6     5
    4     5   104     5
    6     5   104     5
    5     6     7     5
    5     6    11     5
    7     6    11     5
    2     7     6     5
    2     7     8     5
    6     7     8     5
    7     8     9     5
  965     8     7     5
  965     8     9     5
    8     9    10     5
  972     9     8     5
  972     9    10     5
    9    10    11     5
    9    10    15     5
   11    10    15     5
    6    11    10     5
    6    11    12     5
   10    11    12     5
   11    12    13     5
   11    12   105     5
   13    12   105     5
   12    13    14     5
   12    13   112     5
   14    13   112     5
   13    14    15     5
   13    14    19     5
   15    14    19     5
   10    15    14     5
   10    15    16     5
   14    15    16     5
   15    16    17     5
  973    16    15     5
  973    16    17     5
   16    17    18     5
  980    17    16     5
  980    17    18     5
   17    18    19     5
   17    18    23     5
   19    18    23     5
   14    19    18     5
   14    19    20     5
   18    19    20     5
   19    20    21     5
   19    20   113     5
   21    20   113     5
   20    21    22     5
   20    21   120     5
   22    21   120     5
   21    22    23     5
   21    22    27     5
   23    22    27     5
   18    23    22     5
   18    23    24     5
   22    23    24     5
   23    24    25     5
  981    24    23     5
  981    24    25     5
   24    25    26     5
  988    25    24     5
  988    25    26     5
   25    26    27     5
   25    26    31     5
   27    26    31     5
   22    27    26     5
   22    27    28     5
   26    27    28     5
   27    28    29     5
   27    28   121     5
   29    28   121     5
   28    29    30     5
   28    29   128     5
   30    29   128     5
   29    30    31     5
   29    30    35     5
   31    30    35     5
   26    31    30     5
   26    31    32     5
   30    31    32     5
   31    32    33     5
  989    32    31     5
  989    32    33     5
   32    33    34     5
  996    33    32     5
  996    33    34     5
   33    34    35     5
   33    34    39     5
   35    34    39     5
   30    35    34     5
   30    35    36     5
   34    35    36     5
   35    36    37     5
   35    36   129     5
   37    36   129     5
   36    37    38     5
   36    37   136     5
   38    37   136     5
   37    38    39     5
   37    38    43     5
   39    38    43     5
   34    39    38     5
   34    39    40     5
   38    39    40     5
   39    40    41     5
  997    40    39     5
  997    40    41     5
   40    41    42     5
 1004    41    40     5
 1004    41    42     5
   41    42    43     5
   41    42    47     5
   43    42    47     5
   38    43    42     5
   38    43    44     5
   42    43    44     5
   43    44    45     5
   43    44   137     5
   45    44   137     5
   44    45    46     5
   44    45   144     5
   46    45   144     5
   45    46    47     5
   45    46    51     5
   47    46    51     5
   42    47    46     5
   42    47    48     5
   46    47    48     5
   47    48    49     5
 1005    48    47     5
 1005    48    49     5
   48    49    50     5
 1012    49    48     5
 1012    49    50     5
   49    50    51     5
   49    50    55     5
   51    50    55     5
   46    51    50     5
   46    51    52     5
   50    51    52     5
   51    52    53     5
   51    52   145     5
   53    52   145     5
   52    53    54     5
   52    53   152     5
   54    53   152     5
   53    54    55     5
   53    54    59     5
   55    54    59     5
   50    55    54     5
   50    55    56     5
   54    55    56     5
   55    56    57     5
 1013    56    55     5
 1013    56    57     5
   56    57    58     5
 1020    57    56     5
 1020    57    58     5
   57    58    59     5
   57    58    63     5
   59    58    63     5
   54    59    58     5
   54    59    60     5
   58    59    60     5
   59    60    61     5
   59    60   153     5
   61    60   153     5
   60    61    62     5
   60    61   160     5
   62    61   160     5
   61    62    63     5
   61    62    67     5
   63    62    67     5
   58    63    62     5
   58    63    64     5
   62    63    64     5
   63    64    65     5
 1021    64    63     5
 1021    64    65     5
   64    65    66     5
 1028    65    64     5
 1028    65    66     5
   65    66    67     5
   65    66    71     5
   67    66    71     5
   62    67    66     5
   62    67    68     5
   66    67    68     5
   67    68    69     5
   67    68   161     5
   69    68   161     5
   68    69    70     5
   68    69   168     5
   70    69   168     5
   69    70    71     5
   69    70    75     5
   71    70    75     5
   66    71    70     5
   66    71    72     5
   70    71    72     5
   71    72    73     5
 1029    72    71     5
 1029    72    73     5
   72    73    74     5
 1036    73    72     5
 1036    73    74     5
   73    74    75     5
   73    74    79     5
   75    74    79     5
   70    75    74     5
   70    75    76     5
   74    75    76     5
   75    76    77     5
   75    76   169     5
   77    76   169     5
   76    77    78     5
   76    77   176     5
   78    77   176     5
   77    78    79     5
   77    78    83     5
   79    78    83     5
   74    79    78     5
   74    79    80     5
   78    79    80     5
   79    80    81     5
 1037    80    79     5
 1037    80    81     5
   80    81    82     5
 1044    81    80     5
 1044    81    82     5
   81    82    83     5
   81    82    87     5
   83    82    87     5
   78    83    82     5
   78    83    84     5
   82    83    84     5
   83    84    85     5
   83    84   177     5
   85    84   177     5
   84    85    86     5
   84    85   184     5
   86    85   184     5
   85    86    87     5
   85    86    91     5
   87    86    91     5
   82    87    86     5
   82    87    88     5
   86    87    88     5
   87    88    89     5
 1045    88    87     5
 1045    88    89     5
   88    89    90     5
 1052    89    88     5
 1052    89    90     5
   89    90    91     5
   89    90    95     5
   91    90    95     5
   86    91    90     5
   86    91    92     5
   90    91    92     5
   91    92    93     5
   91    92   185     5
   93    92   185     5
   92    93    94     5
   92    93   192     5
   94    93   192     5
   93    94    95     5
   93    94     3     5
   95    94     3     5
   90    95    94     5
   90    95    96     5
   94    95    96     5
   95    96     1     5
 1053    96    95     5
 1053    96     1     5
    4    97    98     5
  192    97     4     5
  192    97    98     5
   97    98    99     5
   97    98   103     5
   99    98   103     5
   98    99   100     5
  190    99    98     5
  190    99   100     5
   99   100   101     5
   99   100   193     5
  101   100   193     5
  100   101   102     5
  100   101   200     5
  102   101   200     5
  101   102   103     5
  101   102   107     5
  103   102   107     5
   98   103   102     5
   98   103   104     5
  102   103   104     5
    5   104   103     5
    5   104   105     5
  103   104   105     5
   12   105   104     5
   12   105   106     5
  104   105   106     5
  105   106   107     5
  105   106   111     5
  107   106   111     5
  102   107   106     5
  102   107   108     5
  106   107   108     5
  107   108   109     5
  107   108   201     5
  109   108   201     5
  108   109   110     5
  108   109   208     5
  110   109   208     5
  109   110   111     5
  109   110   115     5
  111   110   115     5
  106   111   110     5
  106   111   112     5
  110   111   112     5
   13   112   111     5
   13   112   113     5
  111   112   113     5
   20   113   112     5
   20   113   114     5
  112   113   114     5
  113   114   115     5
  113   114   119     5
  115   114   119     5
  110   115   114     5
  110   115   116     5
  114   115   116     5
  115   116   117     5
  115   116   209     5
  117   116   209     5
  116   117   118     5
  116   117   216     5
  118   117   216     5
  117   118   119     5
  117   118   123     5
  119   118   123     5
  114   119   118     5
  114   119   120     5
  118   119   120     5
   21   120   119     5
   21   120   121     5
  119   120   121     5
   28   121   120     5
   28   121   122     5
  120   121   122     5
  121   122   123     5
  121   122   127     5
  123   122   127     5
  118   123   122     5
  118   123   124     5
  122   123   124     5
  123   124   125     5
  123   124   217     5
  125   124   217     5
  124   125   126     5
  124   125   224     5
  126   125   224     5
  125   126   127     5
  125   126   131     5
  127   126   131     5
  122   127   126     5
  122   127   128     5
  126   127   128     5
   29   128   127     5
   29   128   129     5
  127   128   129     5
   36   129   128     5
   36   129   130     5
  128   129   130     5
  129   130   131     5
  129   130   135     5
  131   130   135     5
  126   131   130     5
  126   131   132     5
  130   131   132     5
  131   132   133     5
  131   132   225     5
  133   132   225     5
  132   133   134     5
  132   133   232     5
  134   133   232     5
  133   134   135     5
  133   134   139     5
  135   134   139     5
  130   135   134     5
  130   135   136     5
  134   135   136     5
   37   136   135     5
   37   136   137     5
  135   136   137     5
   44   137   136     5
   44   137   138     5
  136   137   138     5
  137   138   139     5
  137   138   143     5
  139   138   143     5
  134   139   138     5
  134   139   140     5
  138   139   140     5
  139   140   141     5
  139   140   233     5
  141   140   233     5
  140   141   142     5
  140   141   240     5
  142   141   240     5
  141   142   143     5
  141   142   147     5
  143   142   147     5
  138   143   142     5
  138   143   144     5
  142   143   144     5
   45   144   143     5
   45   144   145     5
  143   144   145     5
   52   145   144     5
   52   145   146     5
  144   145   146     5
  145   146   147     5
  145   146   151     5
  147   146   151     5
  142   147   146     5
  142   147   148     5
  146   147   148     5
  147   148   149     5
  147   148   241     5
  149   148   241     5
  148   149   150     5
  148   149   248     5
  150   149   248     5
  149   150   151     5
  149   150   155     5
  151   150   155     5
  146   151   150     5
  146   151   152     5
  150   151   152     5
   53   152   151     5
   53   152   153     5
  151   152   153     5
   60   153   152     5
   60   153   154     5
  152   153   154     5
  153   154   155     5
  153   154   159     5
  155   154   159     5
  150   155   154     5
  150   155   156     5
  154   155   156     5
  155   156   157     5
  155   156   249     5
  157   156   249     5
  156   157   158     5
  156   157   256     5
  158   157   256     5
  157   158   159     5
  157   158   163     5
  159   158   163     5
  154   159   158     5
  154   159   160     5
  158   159   160     5
   61   160   159     5
   61   160   161     5
  159   160   161     5
   68   161   160     5
   68   161   162     5
  160   161   162     5
  161   162   163     5
  161   162   167     5
  163   162   167     5
  158   163   162     5
  158   163   164     5
  162   163   164     5
  163   164   165     5
  163   164   257     5
  165   164   257     5
  164   165   166     5
  164   165   264     5
  166   165   264     5
  165   166   167     5
  165   166   171     5
  167   166   171     5
  162   167   166     5
  162   167   168     5
  166   167   168     5
   69   168   167     5
   69   168   169     5
  167   168   169     5
   76   169   168     5
   76   169   170     5
  168   169   170     5
  169   170   171     5
  169   170   175     5
  171   170   175     5
  166   171   170     5
  166   171   172     5
  170   171   172     5
  171   172   173     5
  171   172   265     5
  173   172   265     5
  172   173   174     5
  172   173   272     5
  174   173   272     5
  173   174   175     5
  173   174   179     5
  175   174   179     5
  170   175   174     5
  170   175   176     5
  174   175   176     5
   77   176   175     5
   77   176   177     5
  175   176   177     5
   84   177   176     5
   84   177   178     5
  176   177   178     5
  177   178   179     5
  177   178   183     5
  179   178   183     5
  174   179   178     5
  174   179   180     5
  178   179   180     5
  179   180   181     5
  179   180   273     5
  181   180   273     5
  180   181   182     5
  180   181   280     5
  182   181   280     5
  181   182   183     5
  181   182   187     5
  183   182   187     5
  178   183   182     5
  178   183   184     5
  182   183   184     5
   85   184   183     5
   85   184   185     5
  183   184   185     5
   92   185   184     5
   92   185   186     5
  184   185   186     5
  185   186   187     5
  185   186   191     5
  187   186   191     5
  182   187   186     5
  182   187   188     5
  186   187   188     5
  187   188   189     5
  187   188   281     5
  189   188   281     5
  188   189   190     5
  188   189   288     5
  190   189   288     5
  189   190   191     5
  189   190    99     5
  191   190    99     5
  186   191   190     5
  186   191   192     5
  190   191   192     5
   93   192   191     5
   93   192    97     5
  191   192    97     5
  100   193   194     5
  288   193   100     5
  288   193   194     5
  193   194   195     5
  193   194   199     5
  195   194   199     5
  194   195   196     5
  286   195   194     5
  286   195   196     5
  195   196   197     5
  195   196   289     5
  197   196   289     5
  196   197   198     5
  196   197   296     5
  198   197   296     5
  197   198   199     5
  197   198   203     5
  199   198   203     5
  194   199   198     5
  194   199   200     5
  198   199   200     5
  101   200   199     5
  101   200   201     5
  199   200   201     5
  108   201   200     5
  108   201   202     5
  200   201   202     5
  201   202   203     5
  201   202   207     5
  203   202   207     5
  198   203   202     5
  198   203   204     5
  202   203   204     5
  203   204   205     5
  203   204   297     5
  205   204   297     5
  204   205   206     5
  204   205   304     5
  206   205   304     5
  205   206   207     5
  205   206   211     5
  207   206   211     5
  202   207   206     5
  202   207   208     5
  206   207   208     5
  109   208   207     5
  109   208   209     5
  207   208   209     5
  116   209   208     5
  116   209   210     5
  208   209   210     5
  209   210   211     5
  209   210   215     5
  211   210   215     5
  206   211   210     5
  206   211   212     5
  210   211   212     5
  211   212   213     5
  211   212   305     5
  213   212   305     5
  212   213   214     5
  212   213   312     5
  214   213   312     5
  213   214   215     5
  213   214   219     5
  215   214   219     5
  210   215   214     5
  210   215   216     5
  214   215   216     5
  117   216   215     5
  117   216   217     5
  215   216   217     5
  124   217   216     5
  124   217   218     5
  216   217   218     5
  217   218   219     5
  217   218   223     5
  219   218   223     5
  214   219   218     5
  214   219   220     5
  218   219   220     5
  219   220   221     5
  219   220   313     5
  221   220   313     5
  220   221   222     5
  220   221   320     5
  222   221   320     5
  221   222   223     5
  221   222   227     5
  223   222   227     5
  218   223   222     5
  218   223   224     5
  222   223   224     5
  125   224   223     5
  125   224   225     5
  223   224   225     5
  132   225   224     5
  132   225   226     5
  224   225   226     5
  225   226   227     5
  225   226   231     5
  227   226   231     5
  222   227   226     5
  222   227   228     5
  226   227   228     5
  227   228   229     5
  227   228   321     5
  229   228   321     5
  228   229   230     5
  228   229   328     5
  230   229   328     5
  229   230   231     5
  229   230   235     5
  231   230   235     5
  226   231   230     5
  226   231   232     5
  230   231   232     5
  133   232   231     5
  133   232   233     5
  231   232   233     5
  140   233   232     5
  140   233   234     5
  232   233   234     5
  233   234   235     5
  233   234   239     5
  235   234   239     5
  230   235   234     5
  230   235   236     5
  234   235   236     5
  235   236   237     5
  235   236   329     5
  237   236   329     5
  236   237   238     5
  236   237   336     5
  238   237   336     5
  237   238   239     5
  237   238   243     5
  239   238   243     5
  234   239   238     5
  234   239   240     5
  238   239   240     5
  141   240   239     5
  141   240   241     5
  239   240   241     5
  148   241   240     5
  148   241   242     5
  240   241   242     5
  241   242   243     5
  241   242   247     5
  243   242   247     5
  238   243   242     5
  238   243   244     5
  242   243   244     5
  243   244   245     5
  243   244   337     5
  245   244   337     5
  244   245   246     5
  244   245   344     5
  246   245   344     5
  245   246   247     5
  245   246   251     5
  247   246   251     5
  242   247   246     5
  242   247   248     5
  246   247   248     5
  149   248   247     5
  149   248   249     5
  247   248   249     5
  156   249   248     5
  156   249   250     5
  248   249   250     5
  249   250   251     5
  249   250   255     5
  251   250   255     5
  246   251   250     5
  246   251   252     5
  250   251   252     5
  251   252   253     5
  251   252   345     5
  253   252   345     5
  252   253   254     5
  252   253   352     5
  254   253   352     5
  253   254   255     5
  253   254   259     5
  255   254   259     5
  250   255   254     5
  250   255   256     5
  254   255   256     5
  157   256   255     5
  157   256   257     5
  255   256   257     5
  164   257   256     5
  164   257   258     5
  256   257   258     5
  257   258   259     5
  257   258   263     5
  259   258   263     5
  254   259   258     5
  254   259   260     5
  258   259   260     5
  259   260   261     5
  259   260   353     5
  261   260   353     5
  260   261   262     5
  260   261   360     5
  262   261   360     5
  261   262   263     5
  261   262   267     5
  263   262   267     5
  258   263   262     5
  258   263   264     5
  262   263   264     5
  165   264   263     5
  165   264   265     5
  263   264   265     5
  172   265   264     5
  172   265   266     5
  264   265   266     5
  265   266   267     5
  265   266   271     5
  267   266   271     5
  262   267   266     5
  262   267   268     5
  266   267   268     5
  267   268   269     5
  267   268   361     5
  269   268   361     5
  268   269   270     5
  268   269   368     5
  270   269   368     5
  269   270   271     5
  269   270   275     5
  271   270   275     5
  266   271   270     5
  266   271   272     5
  270   271   272     5
  173   272   271     5
  173   272   273     5
  271   272   273     5
  180   273   272     5
  180   273   274     5
  272   273   274     5
  273   274   275     5
  273   274   279     5
  275   274   279     5
  270   275   274     5
  270   275   276     5
  274   275   276     5
  275   276   277     5
  275   276   369     5
  277   276   369     5
  276   277   278     5
  276   277   376     5
  278   277   376     5
  277   278   279     5
  277   278   283     5
  279   278   283     5
  274   279   278     5
  274   279   280     5
  278   279   280     5
  181   280   279     5
  181   280   281     5
  279   280   281     5
  188   281   280     5
  188   281   282     5
  280   281   282     5
  281   282   283     5
  281   282   287     5
  283   282   287     5
  278   283   282     5
  278   283   284     5
  282   283   284     5
  283   284   285     5
  283   284   377     5
  285   284   377     5
  284   285   286     5
  284   285   384     5
  286   285   384     5
  285   286   287     5
  285   286   195     5
  287   286   195     5
  282   287   286     5
  282   287   288     5
  286   287   288     5
  189   288   287     5
  189   288   193     5
  287   288   193     5
  196   289   290     5
  384   289   196     5
  384   289   290     5
  289   290   291     5
  289   290   295     5
  291   290   295     5
  290   291   292     5
  382   291   290     5
  382   291   292     5
  291   292   293     5
  291   292   385     5
  293   292   385     5
  292   293   294     5
  292   293   392     5
  294   293   392     5
  293   294   295     5
  293   294   299     5
  295   294   299     5
  290   295   294     5
  290   295   296     5
  294   295   296     5
  197   296   295     5
  197   296   297     5
  295   296   297     5
  204   297   296     5
  204   297   298     5
  296   297   298     5
  297   298   299     5
  297   298   303     5
  299   298   303     5
  294   299   298     5
  294   299   300     5
  298   299   300     5
  299   300   301     5
  299   300   393     5
  301   300   393     5
  300   301   302     5
  300   301   400     5
  302   301   400     5
  301   302   303     5
  301   302   307     5
  303   302   307     5
  298   303   302     5
  298   303   304     5
  302   303   304     5
  205   304   303     5
  205   304   305     5
  303   304   305     5
  212   305   304     5
  212   305   306     5
  304   305   306     5
  305   306   307     5
  305   306   311     5
  307   306   311     5
  302   307   306     5
  302   307   308     5
  306   307   308     5
  307   308   309     5
  307   308   401     5
  309   308   401     5
  308   309   310     5
  308   309   408     5
  310   309   408     5
  309   310   311     5
  309   310   315     5
  311   310   315     5
  306   311   310     5
  306   311   312     5
  310   311   312     5
  213   312   311     5
  213   312   313     5
  311   312   313     5
  220   313   312     5
  220   313   314     5
  312   313   314     5
  313   314   315     5
  313   314   319     5
  315   314   319     5
  310   315   314     5
  310   315   316     5
  314   315   316     5
  315   316   317     5
  315   316   409     5
  317   316   409     5
  316   317   318     5
  316   317   416     5
  318   317   416     5
  317   318   319     5
  317   318   323     5
  319   318   323     5
  314   319   318     5
  314   319   320     5
  318   319   320     5
  221   320   319     5
  221   320   321     5
  319   320   321     5
  228   321   320     5
  228   321   322     5
  320   321   322     5
  321   322   323     5
  321   322   327     5
  323   322   327     5
  318   323   322     5
  318   323   324     5
  322   323   324     5
  323   324   325     5
  323   324   417     5
  325   324   417     5
  324   325   326     5
  324   325   424     5
  326   325   424     5
  325   326   327     5
  325   326   331     5
  327   326   331     5
  322   327   326     5
  322   327   328     5
  326   327   328     5
  229   328   327     5
  229   328   329     5
  327   328   329     5
  236   329   328     5
  236   329   330     5
  328   329   330     5
  329   330   331     5
  329   330   335     5
  331   330   335     5
  326   331   330     5
  326   331   332     5
  330   331   332     5
  331   332   333     5
  331   332   425     5
  333   332   425     5
  332   333   334     5
  332   333   432     5
  334   333   432     5
  333   334   335     5
  333   334   339     5
  335   334   339     5
  330   335   334     5
  330   335   336     5
  334   335   336     5
  237   336   335     5
  237   336   337     5
  335   336   337     5
  244   337   336     5
  244   337   338     5
  336   337   338     5
  337   338   339     5
  337   338   343     5
  339   338   343     5
  334   339   338     5
  334   339   340     5
  338   339   340     5
  339   340   341     5
  339   340   433     5
  341   340   433     5
  340   341   342     5
  340   341   440     5
  342   341   440     5
  341   342   343     5
  341   342   347     5
  343   342   347     5
  338   343   342     5
  338   343   344     5
  342   343   344     5
  245   344   343     5
  245   344   345     5
  343   344   345     5
  252   345   344     5
  252   345   346     5
  344   345   346     5
  345   346   347     5
  345   346   351     5
  347   346   351     5
  342   347   346     5
  342   347   348     5
  346   347   348     5
  347   348   349     5
  347   348   441     5
  349   348   441     5
  348   349   350     5
  348   349   448     5
  350   349   448     5
  349   350   351     5
  349   350   355     5
  351   350   355     5
  346   351   350     5
  346   351   352     5
  350   351   352     5
  253   352   351     5
  253   352   353     5
  351   352   353     5
  260   353   352     5
  260   353   354     5
  352   353   354     5
  353   354   355     5
  353   354   359     5
  355   354   359     5
  350   355   354     5
  350   355   356     5
  354   355   356     5
  355   356   357     5
  355   356   449     5
  357   356   449     5
  356   357   358     5
  356   357   456     5
  358   357   456     5
  357   358   359     5
  357   358   363     5
  359   358   363     5
  354   359   358     5
  354   359   360     5
  358   359   360     5
  261   360   359     5
  261   360   361     5
  359   360   361     5
  268   361   360     5
  268   361   362     5
  360   361   362     5
  361   362   363     5
  361   362   367     5
  363   362   367     5
  358   363   362     5
  358   363   364     5
  362   363   364     5
  363   364   365     5
  363   364   457     5
  365   364   457     5
  364   365   366     5
  364   365   464     5
  366   365   464     5
  365   366   367     5
  365   366   371     5
  367   366   371     5
  362   367   366     5
  362   367   368     5
  366   367   368     5
  269   368   367     5
  269   368   369     5
  367   368   369     5
  276   369   368     5
  276   369   370     5
  368   369   370     5
  369   370   371     5
  369   370   375     5
  371   370   375     5
  366   371   370     5
  366   371   372     5
  370   371   372     5
  371   372   373     5
  371   372   465     5
  373   372   465     5
  372   373   374     5
  372   373   472     5
  374   373   472     5
  373   374   375     5
  373   374   379     5
  375   374   379     5
  370   375   374     5
  370   375   376     5
  374   375   376     5
  277   376   375     5
  277   376   377     5
  375   376   377     5
  284   377   376     5
  284   377   378     5
  376   377   378     5
  377   378   379     5
  377   378   383     5
  379   378   383     5
  374   379   378     5
  374   379   380     5
  378   379   380     5
  379   380   381     5
  379   380   473     5
  381   380   473     5
  380   381   382     5
  380   381   480     5
  382   381   480     5
  381   382   383     5
  381   382   291     5
  383   382   291     5
  378   383   382     5
  378   383   384     5
  382   383   384     5
  285   384   383     5
  285   384   289     5
  383   384   289     5
  292   385   386     5
  480   385   292     5
  480   385   386     5
  385   386   387     5
  385   386   391     5
  387   386   391     5
  386   387   388     5
  478   387   386     5
  478   387   388     5
  387   388   389     5
  387   388   481     5
  389   388   481     5
  388   389   390     5
  388   389   488     5
  390   389   488     5
  389   390   391     5
  389   390   395     5
  391   390   395     5
  386   391   390     5
  386   391   392     5
  390   391   392     5
  293   392   391     5
  293   392   393     5
  391   392   393     5
  300   393   392     5
  300   393   394     5
  392   393   394     5
  393   394   395     5
  393   394   399     5
  395   394   399     5
  390   395   394     5
  390   395   396     5
  394   395   396     5
  395   396   397     5
  395   396   489     5
  397   396   489     5
  396   397   398     5
  396   397   496     5
  398   397   496     5
  397   398   399     5
  397   398   403     5
  399   398   403     5
  394   399   398     5
  394   399   400     5
  398   399   400     5
  301   400   399     5
  301   400   401     5
  399   400   401     5
  308   401   400     5
  308   401   402     5
  400   401   402     5
  401   402   403     5
  401   402   407     5
  403   402   407     5
  398   403   402     5
  398   403   404     5
  402   403   404     5
  403   404   405     5
  403   404   497     5
  405   404   497     5
  404   405   406     5
  404   405   504     5
  406   405   504     5
  405   406   407     5
  405   406   411     5
  407   406   411     5
  402   407   406     5
  402   407   408     5
  406   407   408     5
  309   408   407     5
  309   408   409     5
  407   408   409     5
  316   409   408     5
  316   409   410     5
  408   409   410     5
  409   410   411     5
  409   410   415     5
  411   410   415     5
  406   411   410     5
  406   411   412     5
  410   411   412     5
  411   412   413     5
  411   412   505     5
  413   412   505     5
  412   413   414     5
  412   413   512     5
  414   413   512     5
  413   414   415     5
  413   414   419     5
  415   414   419     5
  410   415   414     5
  410   415   416     5
  414   415   416     5
  317   416   415     5
  317   416   417     5
  415   416   417     5
  324   417   416     5
  324   417   418     5
  416   417   418     5
  417   418   419     5
  417   418   423     5
  419   418   423     5
  414   419   418     5
  414   419   420     5
  418   419   420     5
  419   420   421     5
  419   420   513     5
  421   420   513     5
  420   421   422     5
  420   421   520     5
  422   421   520     5
  421   422   423     5
  421   422   427     5
  423   422   427     5
  418   423   422     5
  418   423   424     5
  422   423   424     5
  325   424   423     5
  325   424   425     5
  423   424   425     5
  332   425   424     5
  332   425   426     5
  424   425   426     5
  425   426   427     5
  425   426   431     5
  427   426   431     5
  422   427   426     5
  422   427   428     5
  426   427   428     5
  427   428   429     5
  427   428   521     5
  429   428   521     5
  428   429   430     5
  428   429   528     5
  430   429   528     5
  429   430   431     5
  429   430   435     5
  431   430   435     5
  426   431   430     5
  426   431   432     5
  430   431   432     5
  333   432   431     5
  333   432   433     5
  431   432   433     5
  340   433   432     5
  340   433   434     5
  432   433   434     5
  433   434   435     5
  433   434   439     5
  435   434   439     5
  430   435   434     5
  430   435   436     5
  434   435   436     5
  435   436   437     5
  435   436   529     5
  437   436   529     5
  436   437   438     5
  436   437   536     5
  438   437   536     5
  437   438   439     5
  437   438   443     5
  439   438   443     5
  434   439   438     5
  434   439   440     5
  438   439   440     5
  341   440   439     5
  341   440   441     5
  439   440   441     5
  348   441   440     5
  348   441   442     5
  440   441   442     5
  441   442   443     5
  441   442   447     5
  443   442   447     5
  438   443   442     5
  438   443   444     5
  442   443   444     5
  443   444   445     5
  443   444   537     5
  445   444   537     5
  444   445   446     5
  444   445   544     5
  446   445   544     5
  445   446   447     5
  445   446   451     5
  447   446   451     5
  442   447   446     5
  442   447   448     5
  446   447   448     5
  349   448   447     5
  349   448   449     5
  447   448   449     5
  356   449   448     5
  356   449   450     5
  448   449   450     5
  449   450   451     5
  449   450   455     5
  451   450   455     5
  446   451   450     5
  446   451   452     5
  450   451   452     5
  451   452   453     5
  451   452   545     5
  453   452   545     5
  452   453   454     5
  452   453   552     5
  454   453   552     5
  453   454   455     5
  453   454   459     5
  455   454   459     5
  450   455   454     5
  450   455   456     5
  454   455   456     5
  357   456   455     5
  357   456   457     5
  455   456   457     5
  364   457   456     5
  364   457   458     5
  456   457   458     5
  457   458   459     5
  457   458   463     5
  459   458   463     5
  454   459   458     5
  454   459   460     5
  458   459   460     5
  459   460   461     5
  459   460   553     5
  461   460   553     5
  460   461   462     5
  460   461   560     5
  462   461   560     5
  461   462   463     5
  461   462   467     5
  463   462   467     5
  458   463   462     5
  458   463   464     5
  462   463   464     5
  365   464   463     5
  365   464   465     5
  463   464   465     5
  372   465   464     5
  372   465   466     5
  464   465   466     5
  465   466   467     5
  465   466   471     5
  467   466   471     5
  462   467   466     5
  462   467   468     5
  466   467   468     5
  467   468   469     5
  467   468   561     5
  469   468   561     5
  468   469   470     5
  468   469   568     5
  470   469   568     5
  469   470   471     5
  469   470   475     5
  471   470   475     5
  466   471   470     5
  466   471   472     5
  470   471   472     5
  373   472   471     5
  373   472   473     5
  471   472   473     5
  380   473   472     5
  380   473   474     5
  472   473   474     5
  473   474   475     5
  473   474   479     5
  475   474   479     5
  470   475   474     5
  470   475   476     5
  474   475   476     5
  475   476   477     5
  475   476   569     5
  477   476   569     5
  476   477   478     5
  476   477   576     5
  478   477   576     5
  477   478   479     5
  477   478   387     5
  479   478   387     5
  474   479   478     5
  474   479   480     5
  478   479   480     5
  381   480   479     5
  381   480   385     5
  479   480   385     5
  388   481   482     5
  576   481   388     5
  576   481   482     5
  481   482   483     5
  481   482   487     5
  483   482   487     5
  482   483   484     5
  574   483   482     5
  574   483   484     5
  483   484   485     5
  483   484   577     5
  485   484   577     5
  484   485   486     5
  484   485   584     5
  486   485   584     5
  485   486   487     5
  485   486   491     5
  487   486   491     5
  482   487   486     5
  482   487   488     5
  486   487   488     5
  389   488   487     5
  389   488   489     5
  487   488   489     5
  396   489   488     5
  396   489   490     5
  488   489   490     5
  489   490   491     5
  489   490   495     5
  491   490   495     5
  486   491   490     5
  486   491   492     5
  490   491   492     5
  491   492   493     5
  491   492   585     5
  493   492   585     5
  492   493   494     5
  492   493   592     5
  494   493   592     5
  493   494   495     5
  493   494   499     5
  495   494   499     5
  490   495   494     5
  490   495   496     5
  494   495   496     5
  397   496   495     5
  397   496   497     5
  495   496   497     5
  404   497   496     5
  404   497   498     5
  496   497   498     5
  497   498   499     5
  497   498   503     5
  499   498   503     5
  494   499   498     5
  494   499   500     5
  498   499   500     5
  499   500   501     5
  499   500   593     5
  501   500   593     5
  500   501   502     5
  500   501   600     5
  502   501   600     5
  501   502   503     5
  501   502   507     5
  503   502   507     5
  498   503   502     5
  498   503   504     5
  502   503   504     5
  405   504   503     5
  405   504   505     5
  503   504   505     5
  412   505   504     5
  412   505   506     5
  504   505   506     5
  505   506   507     5
  505   506   511     5
  507   506   511     5
  502   507   506     5
  502   507   508     5
  506   507   508     5
  507   508   509     5
  507   508   601     5
  509   508   601     5
  508   509   510     5
  508   509   608     5
  510   509   608     5
  509   510   511     5
  509   510   515     5
  511   510   515     5
  506   511   510     5
  506   511   512     5
  510   511   512     5
  413   512   511     5
  413   512   513     5
  511   512   513     5
  420   513   512     5
  420   513   514     5
  512   513   514     5
  513   514   515     5
  513   514   519     5
  515   514   519     5
  510   515   514     5
  510   515   516     5
  514   515   516     5
  515   516   517     5
  515   516   609     5
  517   516   609     5
  516   517   518     5
  516   517   616     5
  518   517   616     5
  517   518   519     5
  517   518   523     5
  519   518   523     5
  514   519   518     5
  514   519   520     5
  518   519   520     5
  421   520   519     5
  421   520   521     5
  519   520   521     5
  428   521   520     5
  428   521   522     5
  520   521   522     5
  521   522   523     5
  521   522   527     5
  523   522   527     5
  518   523   522     5
  518   523   524     5
  522   523   524     5
  523   524   525     5
  523   524   617     5
  525   524   617     5
  524   525   526     5
  524   525   624     5
  526   525   624     5
  525   526   527     5
  525   526   531     5
  527   526   531     5
  522   527   526     5
  522   527   528     5
  526   527   528     5
  429   528   527     5
  429   528   529     5
  527   528   529     5
  436   529   528     5
  436   529   530     5
  528   529   530     5
  529   530   531     5
  529   530   535     5
  531   530   535     5
  526   531   530     5
  526   531   532     5
  530   531   532     5
  531   532   533     5
  531   532   625     5
  533   532   625     5
  532   533   534     5
  532   533   632     5
  534   533   632     5
  533   534   535     5
  533   534   539     5
  535   534   539     5
  530   535   534     5
  530   535   536     5
  534   535   536     5
  437   536   535     5
  437   536   537     5
  535   536   537     5
  444   537   536     5
  444   537   538     5
  536   537   538     5
  537   538   539     5
  537   538   543     5
  539   538   543     5
  534   539   538     5
  534   539   540     5
  538   539   540     5
  539   540   541     5
  539   540   633     5
  541   540   633     5
  540   541   542     5
  540   541   640     5
  542   541   640     5
  541   542   543     5
  541   542   547     5
  543   542   547     5
  538   543   542     5
  538   543   544     5
  542   543   544     5
  445   544   543     5
  445   544   545     5
  543   544   545     5
  452   545   544     5
  452   545   546     5
  544   545   546     5
  545   546   547     5
  545   546   551     5
  547   546   551     5
  542   547   546     5
  542   547   548     5
  546   547   548     5
  547   548   549     5
  547   548   641     5
  549   548   641     5
  548   549   550     5
  548   549   648     5
  550   549   648     5
  549   550   551     5
  549   550   555     5
  551   550   555     5
  546   551   550     5
  546   551   552     5
  550   551   552     5
  453   552   551     5
  453   552   553     5
  551   552   553     5
  460   553   552     5
  460   553   554     5
  552   553   554     5
  553   554   555     5
  553   554   559     5
  555   554   559     5
  550   555   554     5
  550   555   556     5
  554   555   556     5
  555   556   557     5
  555   556   649     5
  557   556   649     5
  556   557   558     5
  556   557   656     5
  558   557   656     5
  557   558   559     5
  557   558   563     5
  559   558   563     5
  554   559   558     5
  554   559   560     5
  558   559   560     5
  461   560   559     5
  461   560   561     5
  559   560   561     5
  468   561   560     5
  468   561   562     5
  560   561   562     5
  561   562   563     5
  561   562   567     5
  563   562   567     5
  558   563   562     5
  558   563   564     5
  562   563   564     5
  563   564   565     5
  563   564   657     5
  565   564   657     5
  564   565   566     5
  564   565   664     5
  566   565   664     5
  565   566   567     5
  565   566   571     5
  567   566   571     5
  562   567   566     5
  562   567   568     5
  566   567   568     5
  469   568   567     5
  469   568   569     5
  567   568   569     5
  476   569   568     5
  476   569   570     5
  568   569   570     5
  569   570   571     5
  569   570   575     5
  571   570   575     5
  566   571   570     5
  566   571   572     5
  570   571   572     5
  571   572   573     5
  571   572   665     5
  573   572   665     5
  572   573   574     5
  572   573   672     5
  574   573   672     5
  573   574   575     5
  573   574   483     5
  575   574   483     5
  570   575   574     5
  570   575   576     5
  574   575   576     5
  477   576   575     5
  477   576   481     5
  575   576   481     5
  484   577   578     5
  672   577   484     5
  672   577   578     5
  577   578   579     5
  577   578   583     5
  579   578   583     5
  578   579   580     5
  670   579   578     5
  670   579   580     5
  579   580   581     5
  579   580   673     5
  581   580   673     5
  580   581   582     5
  580   581   680     5
  582   581   680     5
  581   582   583     5
  581   582   587     5
  583   582   587     5
  578   583   582     5
  578   583   584     5
  582   583   584     5
  485   584   583     5
  485   584   585     5
  583   584   585     5
  492   585   584     5
  492   585   586     5
  584   585   586     5
  585   586   587     5
  585   586   591     5
  587   586   591     5
  582   587   586     5
  582   587   588     5
  586   587   588     5
  587   588   589     5
  587   588   681     5
  589   588   681     5
  588   589   590     5
  588   589   688     5
  590   589   688     5
  589   590   591     5
  589   590   595     5
  591   590   595     5
  586   591   590     5
  586   591   592     5
  590   591   592     5
  493   592   591     5
  493   592   593     5
  591   592   593     5
  500   593   592     5
  500   593   594     5
  592   593   594     5
  593   594   595     5
  593   594   599     5
  595   594   599     5
  590   595   594     5
  590   595   596     5
  594   595   596     5
  595   596   597     5
  595   596   689     5
  597   596   689     5
  596   597   598     5
  596   597   696     5
  598   597   696     5
  597   598   599     5
  597   598   603     5
  599   598   603     5
  594   599   598     5
  594   599   600     5
  598   599   600     5
  501   600   599     5
  501   600   601     5
  599   600   601     5
  508   601   600     5
  508   601   602     5
  600   601   602     5
  601   602   603     5
  601   602   607     5
  603   602   607     5
  598   603   602     5
  598   603   604     5
  602   603   604     5
  603   604   605     5
  603   604   697     5
  605   604   697     5
  604   605   606     5
  604   605   704     5
  606   605   704     5
  605   606   607     5
  605   606   611     5
  607   606   611     5
  602   607   606     5
  602   607   608     5
  606   607   608     5
  509   608   607     5
  509   608   609     5
  607   608   609     5
  516   609   608     5
  516   609   610     5
  608   609   610     5
  609   610   611     5
  609   610   615     5
  611   610   615     5
  606   611   610     5
  606   611   612     5
  610   611   612     5
  611   612   613     5
  611   612   705     5
  613   612   705     5
  612   613   614     5
  612   613   712     5
  614   613   712     5
  613   614   615     5
  613   614   619     5
  615   614   619     5
  610   615   614     5
  610   615   616     5
  614   615   616     5
  517   616   615     5
  517   616   617     5
  615   616   617     5
  524   617   616     5
  524   617   618     5
  616   617   618     5
  617   618   619     5
  617   618   623     5
  619   618   623     5
  614   619   618     5
  614   619   620     5
  618   619   620     5
  619   620   621     5
  619   620   713     5
  621   620   713     5
  620   621   622     5
  620   621   720     5
  622   621   720     5
  621   622   623     5
  621   622   627     5
  623   622   627     5
  618   623   622     5
  618   623   624     5
  622   623   624     5
  525   624   623     5
  525   624   625     5
  623   624   625     5
  532   625   624     5
  532   625   626     5
  624   625   626     5
  625   626   627     5
  625   626   631     5
  627   626   631     5
  622   627   626     5
  622   627   628     5
  626   627   628     5
  627   628   629     5
  627   628   721     5
  629   628   721     5
  628   629   630     5
  628   629   728     5
  630   629   728     5
  629   630   631     5
  629   630   635     5
  631   630   635     5
  626   631   630     5
  626   631   632     5
  630   631   632     5
  533   632   631     5
  533   632   633     5
  631   632   633     5
  540   633   632     5
  540   633   634     5
  632   633   634     5
  633   634   635     5
  633   634   639     5
  635   634   639     5
  630   635   634     5
  630   635   636     5
  634   635   636     5
  635   636   637     5
  635   636   729     5
  637   636   729     5
  636   637   638     5
  636   637   736     5
  638   637   736     5
  637   638   639     5
  637   638   643     5
  639   638   643     5
  634   639   638     5
  634   639   640     5
  638   639   640     5
  541   640   639     5
  541   640   641     5
  639   640   641     5
  548   641   640     5
  548   641   642     5
  640   641   642     5
  641   642   643     5
  641   642   647     5
  643   642   647     5
  638   643   642     5
  638   643   644     5
  642   643   644     5
  643   644   645     5
  643   644   737     5
  645   644   737     5
  644   645   646     5
  644   645   744     5
  646   645   744     5
  645   646   647     5
  645   646   651     5
  647   646   651     5
  642   647   646     5
  642   647   648     5
  646   647   648     5
  549   648   647     5
  549   648   649     5
  647   648   649     5
  556   649   648     5
  556   649   650     5
  648   649   650     5
  649   650   651     5
  649   650   655     5
  651   650   655     5
  646   651   650     5
  646   651   652     5
  650   651   652     5
  651   652   653     5
  651   652   745     5
  653   652   745     5
  652   653   654     5
  652   653   752     5
  654   653   752     5
  653   654   655     5
  653   654   659     5
  655   654   659     5
  650   655   654     5
  650   655   656     5
  654   655   656     5
  557   656   655     5
  557   656   657     5
  655   656   657     5
  564   657   656     5
  564   657   658     5
  656   657   658     5
  657   658   659     5
  657   658   663     5
  659   658   663     5
  654   659   658     5
  654   659   660     5
  658   659   660     5
  659   660   661     5
  659   660   753     5
  661   660   753     5
  660   661   662     5
  660   661   760     5
  662   661   760     5
  661   662   663     5
  661   662   667     5
  663   662   667     5
  658   663   662     5
  658   663   664     5
  662   663   664     5
  565   664   663     5
  565   664   665     5
  663   664   665     5
  572   665   664     5
  572   665   666     5
  664   665   666     5
  665   666   667     5
  665   666   671     5
  667   666   671     5
  662   667   666     5
  662   667   668     5
  666   667   668     5
  667   668   669     5
  667   668   761     5
  669   668   761     5
  668   669   670     5
  668   669   768     5
  670   669   768     5
  669   670   671     5
  669   670   579     5
  671   670   579     5
  666   671   670     5
  666   671   672     5
  670   671   672     5
  573   672   671     5
  573   672   577     5
  671   672   577     5
  580   673   674     5
  768   673   580     5
  768   673   674     5
  673   674   675     5
  673   674   679     5
  675   674   679     5
  674   675   676     5
  766   675   674     5
  766   675   676     5
  675   676   677     5
  675   676   769     5
  677   676   769     5
  676   677   678     5
  676   677   776     5
  678   677   776     5
  677   678   679     5
  677   678   683     5
  679   678   683     5
  674   679   678     5
  674   679   680     5
  678   679   680     5
  581   680   679     5
  581   680   681     5
  679   680   681     5
  588   681   680     5
  588   681   682     5
  680   681   682     5
  681   682   683     5
  681   682   687     5
  683   682   687     5
  678   683   682     5
  678   683   684     5
  682   683   684     5
  683   684   685     5
  683   684   777     5
  685   684   777     5
  684   685   686     5
  684   685   784     5
  686   685   784     5
  685   686   687     5
  685   686   691     5
  687   686   691     5
  682   687   686     5
  682   687   688     5
  686   687   688     5
  589   688   687     5
  589   688   689     5
  687   688   689     5
  596   689   688     5
  596   689   690     5
  688   689   690     5
  689   690   691     5
  689   690   695     5
  691   690   695     5
  686   691   690     5
  686   691   692     5
  690   691   692     5
  691   692   693     5
  691   692   785     5
  693   692   785     5
  692   693   694     5
  692   693   792     5
  694   693   792     5
  693   694   695     5
  693   694   699     5
  695   694   699     5
  690   695   694     5
  690   695   696     5
  694   695   696     5
  597   696   695     5
  597   696   697     5
  695   696   697     5
  604   697   696     5
  604   697   698     5
  696   697   698     5
  697   698   699     5
  697   698   703     5
  699   698   703     5
  694   699   698     5
  694   699   700     5
  698   699   700     5
  699   700   701     5
  699   700   793     5
  701   700   793     5
  700   701   702     5
  700   701   800     5
  702   701   800     5
  701   702   703     5
  701   702   707     5
  703   702   707     5
  698   703   702     5
  698   703   704     5
  702   703   704     5
  605   704   703     5
  605   704   705     5
  703   704   705     5
  612   705   704     5
  612   705   706     5
  704   705   706     5
  705   706   707     5
  705   706   711     5
  707   706   711     5
  702   707   706     5
  702   707   708     5
  706   707   708     5
  707   708   709     5
  707   708   801     5
  709   708   801     5
  708   709   710     5
  708   709   808     5
  710   709   808     5
  709   710   711     5
  709   710   715     5
  711   710   715     5
  706   711   710     5
  706   711   712     5
  710   711   712     5
  613   712   711     5
  613   712   713     5
  711   712   713     5
  620   713   712     5
  620   713   714     5
  712   713   714     5
  713   714   715     5
  713   714   719     5
  715   714   719     5
  710   715   714     5
  710   715   716     5
  714   715   716     5
  715   716   717     5
  715   716   809     5
  717   716   809     5
  716   717   718     5
  716   717   816     5
  718   717   816     5
  717   718   719     5
  717   718   723     5
  719   718   723     5
  714   719   718     5
  714   719   720     5
  718   719   720     5
  621   720   719     5
  621   720   721     5
  719   720   721     5
  628   721   720     5
  628   721   722     5
  720   721   722     5
  721   722   723     5
  721   722   727     5
  723   722   727     5
  718   723   722     5
  718   723   724     5
  722   723   724     5
  723   724   725     5
  723   724   817     5
  725   724   817     5
  724   725   726     5
  724   725   824     5
  726   725   824     5
  725   726   727     5
  725   726   731     5
  727   726   731     5
  722   727   726     5
  722   727   728     5
  726   727   728     5
  629   728   727     5
  629   728   729     5
  727   728   729     5
  636   729   728     5
  636   729   730     5
  728   729   730     5
  729   730   731     5
  729   730   735     5
  731   730   735     5
  726   731   730     5
  726   731   732     5
  730   731   732     5
  731   732   733     5
  731   732   825     5
  733   732   825     5
  732   733   734     5
  732   733   832     5
  734   733   832     5
  733   734   735     5
  733   734   739     5
  735   734   739     5
  730   735   734     5
  730   735   736     5
  734   735   736     5
  637   736   735     5
  637   736   737     5
  735   736   737     5
  644   737   736     5
  644   737   738     5
  736   737   738     5
  737   738   739     5
  737   738   743     5
  739   738   743     5
  734   739   738     5
  734   739   740     5
  738   739   740     5
  739   740   741     5
  739   740   833     5
  741   740   833     5
  740   741   742     5
  740   741   840     5
  742   741   840     5
  741   742   743     5
  741   742   747     5
  743   742   747     5
  738   743   742     5
  738   743   744     5
  742   743   744     5
  645   744   743     5
  645   744   745     5
  743   744   745     5
  652   745   744     5
  652   745   746     5
  744   745   746     5
  745   746   747     5
  745   746   751     5
  747   746   751     5
  742   747   746     5
  742   747   748     5
  746   747   748     5
  747   748   749     5
  747   748   841     5
  749   748   841     5
  748   749   750     5
  748   749   848     5
  750   749   848     5
  749   750   751     5
  749   750   755     5
  751   750   755     5
  746   751   750     5
  746   751   752     5
  750   751   752     5
  653   752   751     5
  653   752   753     5
  751   752   753     5
  660   753   752     5
  660   753   754     5
  752   753   754     5
  753   754   755     5
  753   754   759     5
  755   754   759     5
  750   755   754     5
  750   755   756     5
  754   755   756     5
  755   756   757     5
  755   756   849     5
  757   756   849     5
  756   757   758     5
  756   757   856     5
  758   757   856     5
  757   758   759     5
  757   758   763     5
  759   758   763     5
  754   759   758     5
  754   759   760     5
  758   759   760     5
  661   760   759     5
  661   760   761     5
  759   760   761     5
  668   761   760     5
  668   761   762     5
  760   761   762     5
  761   762   763     5
  761   762   767     5
  763   762   767     5
  758   763   762     5
  758   763   764     5
  762   763   764     5
  763   764   765     5
  763   764   857     5
  765   764   857     5
  764   765   766     5
  764   765   864     5
  766   765   864     5
  765   766   767     5
  765   766   675     5
  767   766   675     5
  762   767   766     5
  762   767   768     5
  766   767   768     5
  669   768   767     5
  669   768   673     5
  767   768   673     5
  676   769   770     5
  864   769   676     5
  864   769   770     5
  769   770   771     5
  769   770   775     5
  771   770   775     5
  770   771   772     5
  862   771   770     5
  862   771   772     5
  771   772   773     5
  771   772   865     5
  773   772   865     5
  772   773   774     5
  772   773   872     5
  774   773   872     5
  773   774   775     5
  773   774   779     5
  775   774   779     5
  770   775   774     5
  770   775   776     5
  774   775   776     5
  677   776   775     5
  677   776   777     5
  775   776   777     5
  684   777   776     5
  684   777   778     5
  776   777   778     5
  777   778   779     5
  777   778   783     5
  779   778   783     5
  774   779   778     5
  774   779   780     5
  778   779   780     5
  779   780   781     5
  779   780   873     5
  781   780   873     5
  780   781   782     5
  780   781   880     5
  782   781   880     5
  781   782   783     5
  781   782   787     5
  783   782   787     5
  778   783   782     5
  778   783   784     5
  782   783   784     5
  685   784   783     5
  685   784   785     5
  783   784   785     5
  692   785   784     5
  692   785   786     5
  784   785   786     5
  785   786   787     5
  785   786   791     5
  787   786   791     5
  782   787   786     5
  782   787   788     5
  786   787   788     5
  787   788   789     5
  787   788   881     5
  789   788   881     5
  788   789   790     5
  788   789   888     5
  790   789   888     5
  789   790   791     5
  789   790   795     5
  791   790   795     5
  786   791   790     5
  786   791   792     5
  790   791   792     5
  693   792   791     5
  693   792   793     5
  791   792   793     5
  700   793   792     5
  700   793   794     5
  792   793   794     5
  793   794   795     5
  793   794   799     5
  795   794   799     5
  790   795   794     5
  790   795   796     5
  794   795   796     5
  795   796   797     5
  795   796   889     5
  797   796   889     5
  796   797   798     5
  796   797   896     5
  798   797   896     5
  797   798   799     5
  797   798   803     5
  799   798   803     5
  794   799   798     5
  794   799   800     5
  798   799   800     5
  701   800   799     5
  701   800   801     5
  799   800   801     5
  708   801   800     5
  708   801   802     5
  800   801   802     5
  801   802   803     5
  801   802   807     5
  803   802   807     5
  798   803   802     5
  798   803   804     5
  802   803   804     5
  803   804   805     5
  803   804   897     5
  805   804   897     5
  804   805   806     5
  804   805   904     5
  806   805   904     5
  805   806   807     5
  805   806   811     5
  807   806   811     5
  802   807   806     5
  802   807   808     5
  806   807   808     5
  709   808   807     5
  709   808   809     5
  807   808   809     5
  716   809   808     5
  716   809   810     5
  808   809   810     5
  809   810   811     5
  809   810   815     5
  811   810   815     5
  806   811   810     5
  806   811   812     5
  810   811   812     5
  811   812   813     5
  811   812   905     5
  813   812   905     5
  812   813   814     5
  812   813   912     5
  814   813   912     5
  813   814   815     5
  813   814   819     5
  815   814   819     5
  810   815   814     5
  810   815   816     5
  814   815   816     5
  717   816   815     5
  717   816   817     5
  815   816   817     5
  724   817   816     5
  724   817   818     5
  816   817   818     5
  817   818   819     5
  817   818   823     5
  819   818   823     5
  814   819   818     5
  814   819   820     5
  818   819   820     5
  819   820   821     5
  819   820   913     5
  821   820   913     5
  820   821   822     5
  820   821   920     5
  822   821   920     5
  821   822   823     5
  821   822   827     5
  823   822   827     5
  818   823   822     5
  818   823   824     5
  822   823   824     5
  725   824   823     5
  725   824   825     5
  823   824   825     5
  732   825   824     5
  732   825   826     5
  824   825   826     5
  825   826   827     5
  825   826   831     5
  827   826   831     5
  822   827   826     5
  822   827   828     5
  826   827   828     5
  827   828   829     5
  827   828   921     5
  829   828   921     5
  828   829   830     5
  828   829   928     5
  830   829   928     5
  829   830   831     5
  829   830   835     5
  831   830   835     5
  826   831   830     5
  826   831   832     5
  830   831   832     5
  733   832   831     5
  733   832   833     5
  831   832   833     5
  740   833   832     5
  740   833   834     5
  832   833   834     5
  833   834   835     5
  833   834   839     5
  835   834   839     5
  830   835   834     5
  830   835   836     5
  834   835   836     5
  835   836   837     5
  835   836   929     5
  837   836   929     5
  836   837   838     5
  836   837   936     5
  838   837   936     5
  837   838   839     5
  837   838   843     5
  839   838   843     5
  834   839   838     5
  834   839   840     5
  838   839   840     5
  741   840   839     5
  741   840   841     5
  839   840   841     5
  748   841   840     5
  748   841   842     5
  840   841   842     5
  841   842   843     5
  841   842   847     5
  843   842   847     5
  838   843   842     5
  838   843   844     5
  842   843   844     5
  843   844   845     5
  843   844   937     5
  845   844   937     5
  844   845   846     5
  844   845   944     5
  846   845   944     5
  845   846   847     5
  845   846   851     5
  847   846   851     5
  842   847   846     5
  842   847   848     5
  846   847   848     5
  749   848   847     5
  749   848   849     5
  847   848   849     5
  756   849   848     5
  756   849   850     5
  848   849   850     5
  849   850   851     5
  849   850   855     5
  851   850   855     5
  846   851   850     5
  846   851   852     5
  850   851   852     5
  851   852   853     5
  851   852   945     5
  853   852   945     5
  852   853   854     5
  852   853   952     5
  854   853   952     5
  853   854   855     5
  853   854   859     5
  855   854   859     5
  850   855   854     5
  850   855   856     5
  854   855   856     5
  757   856   855     5
  757   856   857     5
  855   856   857     5
  764   857   856     5
  764   857   858     5
  856   857   858     5
  857   858   859     5
  857   858   863     5
  859   858   863     5
  854   859   858     5
  854   859   860     5
  858   859   860     5
  859   860   861     5
  859   860   953     5
  861   860   953     5
  860   861   862     5
  860   861   960     5
  862   861   960     5
  861   862   863     5
  861   862   771     5
  863   862   771     5
  858   863   862     5
  858   863   864     5
  862   863   864     5
  765   864   863     5
  765   864   769     5
  863   864   769     5
  772   865   866     5
  960   865   772     5
  960   865   866     5
  865   866   867     5
  865   866   871     5
  867   866   871     5
  866   867   868     5
  958   867   866     5
  958   867   868     5
  867   868   869     5
  867   868   961     5
  869   868   961     5
  868   869   870     5
  868   869   968     5
  870   869   968     5
  869   870   871     5
  869   870   875     5
  871   870   875     5
  866   871   870     5
  866   871   872     5
  870   871   872     5
  773   872   871     5
  773   872   873     5
  871   872   873     5
  780   873   872     5
  780   873   874     5
  872   873   874     5
  873   874   875     5
  873   874   879     5
  875   874   879     5
  870   875   874     5
  870   875   876     5
  874   875   876     5
  875   876   877     5
  875   876   969     5
  877   876   969     5
  876   877   878     5
  876   877   976     5
  878   877   976     5
  877   878   879     5
  877   878   883     5
  879   878   883     5
  874   879   878     5
  874   879   880     5
  878   879   880     5
  781   880   879     5
  781   880   881     5
  879   880   881     5
  788   881   880     5
  788   881   882     5
  880   881   882     5
  881   882   883     5
  881   882   887     5
  883   882   887     5
  878   883   882     5
  878   883   884     5
  882   883   884     5
  883   884   885     5
  883   884   977     5
  885   884   977     5
  884   885   886     5
  884   885   984     5
  886   885   984     5
  885   886   887     5
  885   886   891     5
  887   886   891     5
  882   887   886     5
  882   887   888     5
  886   887   888     5
  789   888   887     5
  789   888   889     5
  887   888   889     5
  796   889   888     5
  796   889   890     5
  888   889   890     5
  889   890   891     5
  889   890   895     5
  891   890   895     5
  886   891   890     5
  886   891   892     5
  890   891   892     5
  891   892   893     5
  891   892   985     5
  893   892   985     5
  892   893   894     5
  892   893   992     5
  894   893   992     5
  893   894   895     5
  893   894   899     5
  895   894   899     5
  890   895   894     5
  890   895   896     5
  894   895   896     5
  797   896   895     5
  797   896   897     5
  895   896   897     5
  804   897   896     5
  804   897   898     5
  896   897   898     5
  897   898   899     5
  897   898   903     5
  899   898   903     5
  894   899   898     5
  894   899   900     5
  898   899   900     5
  899   900   901     5
  899   900   993     5
  901   900   993     5
  900   901   902     5
  900   901  1000     5
  902   901  1000     5
  901   902   903     5
  901   902   907     5
  903   902   907     5
  898   903   902     5
  898   903   904     5
  902   903   904     5
  805   904   903     5
  805   904   905     5
  903   904   905     5
  812   905   904     5
  812   905   906     5
  904   905   906     5
  905   906   907     5
  905   906   911     5
  907   906   911     5
  902   907   906     5
  902   907   908     5
  906   907   908     5
  907   908   909     5
  907   908  1001     5
  909   908  1001     5
  908   909   910     5
  908   909  1008     5
  910   909  1008     5
  909   910   911     5
  909   910   915     5
  911   910   915     5
  906   911   910     5
  906   911   912     5
  910   911   912     5
  813   912   911     5
  813   912   913     5
  911   912   913     5
  820   913   912     5
  820   913   914     5
  912   913   914     5
  913   914   915     5
  913   914   919     5
  915   914   919     5
  910   915   914     5
  910   915   916     5
  914   915   916     5
  915   916   917     5
  915   916  1009     5
  917   916  1009     5
  916   917   918     5
  916   917  1016     5
  918   917  1016     5
  917   918   919     5
  917   918   923     5
  919   918   923     5
  914   919   918     5
  914   919   920     5
  918   919   920     5
  821   920   919     5
  821   920   921     5
  919   920   921     5
  828   921   920     5
  828   921   922     5
  920   921   922     5
  921   922   923     5
  921   922   927     5
  923   922   927     5
  918   923   922     5
  918   923   924     5
  922   923   924     5
  923   924   925     5
  923   924  1017     5
  925   924  1017     5
  924   925   926     5
  924   925  1024     5
  926   925  1024     5
  925   926   927     5
  925   926   931     5
  927   926   931     5
  922   927   926     5
  922   927   928     5
  926   927   928     5
  829   928   927     5
  829   928   929     5
  927   928   929     5
  836   929   928     5
  836   929   930     5
  928   929   930     5
  929   930   931     5
  929   930   935     5
  931   930   935     5
  926   931   930     5
  926   931   932     5
  930   931   932     5
  931   932   933     5
  931   932  1025     5
  933   932  1025     5
  932   933   934     5
  932   933  1032     5
  934   933  1032     5
  933   934   935     5
  933   934   939     5
  935   934   939     5
  930   935   934     5
  930   935   936     5
  934   935   936     5
  837   936   935     5
  837   936   937     5
  935   936   937     5
  844   937   936     5
  844   937   938     5
  936   937   938     5
  937   938   939     5
  937   938   943     5
  939   938   943     5
  934   939   938     5
  934   939   940     5
  938   939   940     5
  939   940   941     5
  939   940  1033     5
  941   940  1033     5
  940   941   942     5
  940   941  1040     5
  942   941  1040     5
  941   942   943     5
  941   942   947     5
  943   942   947     5
  938   943   942     5
  938   943   944     5
  942   943   944     5
  845   944   943     5
  845   944   945     5
  943   944   945     5
  852   945   944     5
  852   945   946     5
  944   945   946     5
  945   946   947     5
  945   946   951     5
  947   946   951     5
  942   947   946     5
  942   947   948     5
  946   947   948     5
  947   948   949     5
  947   948  1041     5
  949   948  1041     5
  948   949   950     5
  948   949  1048     5
  950   949  1048     5
  949   950   951     5
  949   950   955     5
  951   950   955     5
  946   951   950     5
  946   951   952     5
  950   951   952     5
  853   952   951     5
  853   952   953     5
  951   952   953     5
  860   953   952     5
  860   953   954     5
  952   953   954     5
  953   954   955     5
  953   954   959     5
  955   954   959     5
  950   955   954     5
  950   955   956     5
  954   955   956     5
  955   956   957     5
  955   956  1049     5
  957   956  1049     5
  956   957   958     5
  956   957  1056     5
  958   957  1056     5
  957   958   959     5
  957   958   867     5
  959   958   867     5
  954   959   958     5
  954   959   960     5
  958   959   960     5
  861   960   959     5
  861   960   865     5
  959   960   865     5
  868   961   962     5
 1056   961   868     5
 1056   961   962     5
  961   962   963     5
  961   962   967     5
  963   962   967     5
  962   963   964     5
 1054   963   962     5
 1054   963   964     5
  963   964   965     5
  963   964     1     5
  965   964     1     5
  964   965   966     5
  964   965     8     5
  966   965     8     5
  965   966   967     5
  965   966   971     5
  967   966   971     5
  962   967   966     5
  962   967   968     5
  966   967   968     5
  869   968   967     5
  869   968   969     5
  967   968   969     5
  876   969   968     5
  876   969   970     5
  968   969   970     5
  969   970   971     5
  969   970   975     5
  971   970   975     5
  966   971   970     5
  966   971   972     5
  970   971   972     5
  971   972   973     5
  971   972     9     5
  973   972     9     5
  972   973   974     5
  972   973    16     5
  974   973    16     5
  973   974   975     5
  973   974   979     5
  975   974   979     5
  970   975   974     5
  970   975   976     5
  974   975   976     5
  877   976   975     5
  877   976   977     5
  975   976   977     5
  884   977   976     5
  884   977   978     5
  976   977   978     5
  977   978   979     5
  977   978   983     5
  979   978   983     5
  974   979   978     5
  974   979   980     5
  978   979   980     5
  979   980   981     5
  979   980    17     5
  981   980    17     5
  980   981   982     5
  980   981    24     5
  982   981    24     5
  981   982   983     5
  981   982   987     5
  983   982   987     5
  978   983   982     5
  978   983   984     5
  982   983   984     5
  885   984   983     5
  885   984   985     5
  983   984   985     5
  892   985   984     5
  892   985   986     5
  984   985   986     5
  985   986   987     5
  985   986   991     5
  987   986   991     5
  982   987   986     5
  982   987   988     5
  986   987   988     5
  987   988   989     5
  987   988    25     5
  989   988    25     5
  988   989   990     5
  988   989    32     5
  990   989    32     5
  989   990   991     5
  989   990   995     5
  991   990   995     5
  986   991   990     5
  986   991   992     5
  990   991   992     5
  893   992   991     5
  893   992   993     5
  991   992   993     5
  900   993   992     5
  900   993   994     5
  992   993   994     5
  993   994   995     5
  993   994   999     5
  995   994   999     5
  990   995   994     5
  990   995   996     5
  994   995   996     5
  995   996   997     5
  995   996    33     5
  997   996    33     5
  996   997   998     5
  996   997    40     5
  998   997    40     5
  997   998   999     5
  997   998  1003     5
  999   998  1003     5
  994   999   998     5
  994   999  1000     5
  998   999  1000     5
  901  1000   999     5
  901  1000  1001     5
  999  1000  1001     5
  908  1001  1000     5
  908  1001  1002     5
 1000  1001  1002     5
 1001  1002  1003     5
 1001  1002  1007     5
 1003  1002  1007     5
  998  1003  1002     5
  998  1003  1004     5
 1002  1003  1004     5
 1003  1004  1005     5
 1003  1004    41     5
 1005  1004    41     5
 1004  1005  1006     5
 1004  1005    48     5
 1006  1005    48     5
 1005  1006  1007     5
 1005  1006  1011     5
 1007  1006  1011     5
 1002  1007  1006     5
 1002  1007  1008     5
 1006  1007  1008     5
  909  1008  1007     5
  909  1008  1009     5
 1007  1008  1009     5
  916  1009  1008     5
  916  1009  1010     5
 1008  1009  1010     5
 1009  1010  1011     5
 1009  1010  1015     5
 1011  1010  1015     5
 1006  1011  1010     5
 1006  1011  1012     5
 1010  1011  1012     5
 1011  1012  1013     5
 1011  1012    49     5
 1013  1012    49     5
 1012  1013  1014     5
 1012  1013    56     5
 1014  1013    56     5
 1013  1014  1015     5
 1013  1014  1019     5
 1015  1014  1019     5
 1010  1015  1014     5
 1010  1015  1016     5
 1014  1015  1016     5
  917  1016  1015     5
  917  1016  1017     5
 1015  1016  1017     5
  924  1017  1016     5
  924  1017  1018     5
 1016  1017  1018     5
 1017  1018  1019     5
 1017  1018  1023     5
 1019  1018  1023     5
 1014  1019  1018     5
 1014  1019  1020     5
 1018  1019  1020     5
 1019  1020  1021     5
 1019  1020    57     5
 1021  1020    57     5
 1020  1021  1022     5
 1020  1021    64     5
 1022  1021    64     5
 1021  1022  1023     5
 1021  1022  1027     5
 1023  1022  1027     5
 1018  1023  1022     5
 1018  1023  1024     5
 1022  1023  1024     5
  925  1024  1023     5
  925  1024  1025     5
 1023  1024  1025     5
  932  1025  1024     5
  932  1025  1026     5
 1024  1025  1026     5
 1025  1026  1027     5
 1025  1026  1031     5
 1027  1026  1031     5
 1022  1027  1026     5
 1022  1027  1028     5
 1026  1027  1028     5
 1027  1028  1029     5
 1027  1028    65     5
 1029  1028    65     5
 1028  1029  1030     5
 1028  1029    72     5
 1030  1029    72     5
 1029  1030  1031     5
 1029  1030  1035     5
 1031  1030  1035     5
 1026  1031  1030     5
 1026  1031  1032     5
 1030  1031  1032     5
  933  1032  1031     5
  933  1032  1033     5
 1031  1032  1033     5
  940  1033  1032     5
  940  1033  1034     5
 1032  1033  1034     5
 1033  1034  1035     5
 1033  1034  1039     5
 1035  1034  1039     5
 1030  1035  1034     5
 1030  1035  1036     5
 1034  1035  1036     5
 1035  1036  1037     5
 1035  1036    73     5
 1037  1036    73     5
 1036  1037  1038     5
 1036  1037    80     5
 1038  1037    80     5
 1037  1038  1039     5
 1037  1038  1043     5
 1039  1038  1043     5
 1034  1039  1038     5
 1034  1039  1040     5
 1038  1039  1040     5
  941  1040  1039     5
  941  1040  1041     5
 1039  1040  1041     5
  948  1041  1040     5
  948  1041  1042     5
 1040  1041  1042     5
 1041  1042  1043     5
 1041  1042  1047     5
 1043  1042  1047     5
 1038  1043  1042     5
 1038  1043  1044     5
 1042  1043  1044     5
 1043  1044  1045     5
 1043  1044    81     5
 1045  1044    81     5
 1044  1045  1046     5
 1044  1045    88     5
 1046  1045    88     5
 1045  1046  1047     5
 1045  1046  1051     5
 1047  1046  1051     5
 1042  1047  1046     5
 1042  1047  1048     5
 1046  1047  1048     5
  949  1048  1047     5
  949  1048  1049     5
 1047  1048  1049     5
  956  1049  1048     5
  956  1049  1050     5
 1048  1049  1050     5
 1049  1050  1051     5
 1049  1050  1055     5
 1051  1050  1055     5
 1046  1051  1050     5
 1046  1051  1052     5
 1050  1051  1052     5
 1051  1052  1053     5
 1051  1052    89     5
 1053  1052    89     5
 1052  1053  1054     5
 1052  1053    96     5
 1054  1053    96     5
 1053  1054  1055     5
 1053  1054   963     5
 1055  1054   963     5
 1050  1055  1054     5
 1050  1055  1056     5
 1054  1055  1056     5
  957  1056  1055     5
  957  1056   961     5
 1055  1056   961     5

[ dihedrals ]
; ai	aj	ak	al	funct	phi0	cp	mult
    2     1    96    95     9
    2     1    96  1053     9
  964     1    96  1053     9
    2     1   964   963     9
    2     1   964   965     9
   96     1   964   963     9
   96     1   964   965     9
    3     2     1    96     9
    3     2     1   964     9
    7     2     1    96     9
    7     2     1   964     9
    1     2     3     4     9
    1     2     3    94     9
    7     2     3    94     9
    1     2     7     6     9
    1     2     7     8     9
    3     2     7     6     9
    3     2     7     8     9
    4     3     2     7     9
    2     3     4     5     9
    2     3     4    97     9
   94     3     4    97     9
    2     3    94    93     9
    2     3    94    95     9
    4     3    94    93     9
    4     3    94    95     9
    5     4     3    94     9
    3     4     5     6     9
    3     4     5   104     9
   97     4     5   104     9
    3     4    97    98     9
    3     4    97   192     9
    5     4    97    98     9
    5     4    97   192     9
    6     5     4    97     9
    4     5     6     7     9
    4     5     6    11     9
    4     5   104   103     9
    4     5   104   105     9
    6     5   104   103     9
    6     5   104   105     9
    7     6     5   104     9
   11     6     5   104     9
    5     6     7     8     9
    5     6    11    10     9
    5     6    11    12     9
    7     6    11    10     9
    7     6    11    12     9
    2     7     6     5     9
    2     7     6    11     9
    8     7     6    11     9
    2     7     8     9     9
    2     7     8   965     9
    6     7     8     9     9
    6     7     8   965     9
    7     8     9    10     9
    7     8     9   972     9
  965     8     9   972     9
    7     8   965   964     9
    7     8   965   966     9
    9     8   965   964     9
    9     8   965   966     9
   10     9     8   965     9
    8     9    10    11     9
    8     9    10    15     9
    8     9   972   971     9
    8     9   972   973     9
   10     9   972   971     9
   10     9   972   973     9
   11    10     9   972     9
   15    10     9   972     9
    9    10    11    12     9
    9    10    15    14     9
    9    10    15    16     9
   11    10    15    14     9
   11    10    15    16     9
    6    11    10     9     9
    6    11    10    15     9
   12    11    10    15     9
    6    11    12    13     9
    6    11    12   105     9
   10    11    12    13     9
   10    11    12   105     9
   11    12    13    14     9
   11    12    13   112     9
  105    12    13   112     9
   11    12   105   104     9
   11    12   105   106     9
   13    12   105   104     9
   13    12   105   106     9
   14    13    12   105     9
   12    13    14    15     9
   12    13    14    19     9
   12    13   112   111     9
   12    13   112   113     9
   14    13   112   111     9
   14    13   112   113     9
   15    14    13   112     9
   19    14    13   112     9
   13    14    15    16     9
   13    14    19    18     9
   13    14    19    20     9
   15    14    19    18     9
   15    14    19    20     9
   10    15    14    13     9
   10    15    14    19     9
   16    15    14    19     9
   10    15    16    17     9
   10    15    16   973     9
   14    15    16    17     9
   14    15    16   973     9
   15    16    17    18     9
   15    16    17   980     9
  973    16    17   980     9
   15    16   973   972     9
   15    16   973   974     9
   17    16   973   972     9
   17    16   973   974     9
   18    17    16   973     9
   16    17    18    19     9
   16    17    18    23     9
   16    17   980   979     9
   16    17   980   981     9
   18    17   980   979     9
   18    17   980   981     9
   19    18    17   980     9
   23    18    17   980     9
   17    18    19    20     9
   17    18    23    22     9
   17    18    23    24     9
   19    18    23    22     9
   19    18    23    24     9
   14    19    18    17     9
   14    19    18    23     9
   20    19    18    23     9
   14    19    20    21     9
   14    19    20   113     9
   18    19    20    21     9
   18    19    20   113     9
   19    20    21    22     9
   19    20    21   120     9
  113    20    21   120     9
   19    20   113   112     9
   19    20   113   114     9
   21    20   113   112     9
   21    20   113   114     9
   22    21    20   113     9
   20    21    22    23     9
   20    21    22    27     9
   20    21   120   119     9
   20    21   120   121     9
   22    21   120   119     9
   22    21   120   121     9
   23    22    21   120     9
   27    22    21   120     9
   21    22    23    24     9
   21    22    27    26     9
   21    22    27    28     9
   23    22    27    26     9
   23    22    27    28     9
   18    23    22    21     9
   18    23    22    27     9
   24    23    22    27     9
   18    23    24    25     9
   18    23    24   981     9
   22    23    24    25     9
   22    23    24   981     9
   23    24    25    26     9
   23    24    25   988     9
  981    24    25   988     9
   23    24   981   980     9
   23    24   981   982     9
   25    24   981   980     9
   25    24   981   982     9
   26    25    24   981     9
   24    25    26    27     9
   24    25    26    31     9
   24    25   988   987     9
   24    25   988   989     9
   26    25   988   987     9
   26    25   988   989     9
   27    26    25   988     9
   31    26    25   988     9
   25    26    27    28     9
   25    26    31    30     9
   25    26    31    32     9
   27    26    31    30     9
   27    26    31    32     9
   22    27    26    25     9
   22    27    26    31     9
   28    27    26    31     9
   22    27    28    29     9
   22    27    28   121     9
   26    27    28    29     9
   26    27    28   121     9
   27    28    29    30     9
   27    28    29   128     9
  121    28    29   128     9
   27    28   121   120     9
   27    28   121   122     9
   29    28   121   120     9
   29    28   121   122     9
   30    29    28   121     9
   28    29    30    31     9
   28    29    30    35     9
   28    29   128   127     9
   28    29   128   129     9
   30    29   128   127     9
   30    29   128   129     9
   31    30    29   128     9
   35    30    29   128     9
   29    30    31    32     9
   29    30    35    34     9
   29    30    35    36     9
   31    30    35    34     9
   31    30    35    36     9
   26    31    30    29     9
   26    31    30    35     9
   32    31    30    35     9
   26    31    32    33     9
   26    31    32   989     9
   30    31    32    33     9
   30    31    32   989     9
   31    32    33    34     9
   31    32    33   996     9
  989    32    33   996     9
   31    32   989   988     9
   31    32   989   990     9
   33    32   989   988     9
   33    32   989   990     9
   34    33    32   989     9
   32    33    34    35     9
   32    33    34    39     9
   32    33   996   995     9
   32    33   996   997     9
   34    33   996   995     9
   34    33   996   997     9
   35    34    33   996     9
   39    34    33   996     9
   33    34    35    36     9
   33    34    39    38     9
   33    34    39    40     9
   35    34    39    38     9
   35    34    39    40     9
   30    35    34    33     9
   30    35    34    39     9
   36    35    34    39     9
   30    35    36    37     9
   30    35    36   129     9
   34    35    36    37     9
   34    35    36   129     9
   35    36    37    38     9
   35    36    37   136     9
  129    36    37   136     9
   35    36   129   128     9
   35    36   129   130     9
   37    36   129   128     9
   37    36   129   130     9
   38    37    36   129     9
   36    37    38    39     9
   36    37    38    43     9
   36    37   136   135     9
   36    37   136   137     9
   38    37   136   135     9
   38    37   136   137     9
   39    38    37   136     9
   43    38    37   136     9
   37    38    39    40     9
   37    38    43    42     9
   37    38    43    44     9
   39    38    43    42     9
   39    38    43    44     9
   34    39    38    37     9
   34    39    38    43     9
   40    39    38    43     9
   34    39    40    41     9
   34    39    40   997     9
   38    39    40    41     9
   38    39    40   997     9
   39    40    41    42     9
   39    40    41  1004     9
  997    40    41  1004     9
   39    40   997   996     9
   39    40   997   998     9
   41    40   997   996     9
   41    40   997   998     9
   42    41    40   997     9
   40    41    42    43     9
   40    41    42    47     9
   40    41  1004  1003     9
   40    41  1004  1005     9
   42    41  1004  1003     9
   42    41  1004  1005     9
   43    42    41  1004     9
   47    42    41  1004     9
   41    42    43    44     9
   41    42    47    46     9
   41    42    47    48     9
   43    42    47    46     9
   43    42    47    48     9
   38    43    42    41     9
   38    43    42    47     9
   44    43    42    47     9
   38    43    44    45     9
   38    43    44   137     9
   42    43    44    45     9
   42    43    44   137     9
   43    44    45    46     9
   43    44    45   144     9
  137    44    45   144     9
   43    44   137   136     9
   43    44   137   138     9
   45    44   137   136     9
   45    44   137   138     9
   46    45    44   137     9
   44    45    46    47     9
   44    45    46    51     9
   44    45   144   143     9
   44    45   144   145     9
   46    45   144   143     9
   46    45   144   145     9
   47    46    45   144     9
   51    46    45   144     9
   45    46    47    48     9
   45    46    51    50     9
   45    46    51    52     9
   47    46    51    50     9
   47    46    51    52     9
   42    47    46    45     9
   42    47    46    51     9
   48    47    46    51     9
   42    47    48    49     9
   42    47    48  1005     9
   46    47    48    49     9
   46    47    48  1005     9
   47    48    49    50     9
   47    48    49  1012     9
 1005    48    49  1012     9
   47    48  1005  1004     9
   47    48  1005  1006     9
   49    48  1005  1004     9
   49    48  1005  1006     9
   50    49    48  1005     9
   48    49    50    51     9
   48    49    50    55     9
   48    49  1012  1011     9
   48    49  1012  1013     9
   50    49  1012  1011     9
   50    49  1012  1013     9
   51    50    49  1012     9
   55    50    49  1012     9
   49    50    51    52     9
   49    50    55    54     9
   49    50    55    56     9
   51    50    55    54     9
   51    50    55    56     9
   46    51    50    49     9
   46    51    50    55     9
   52    51    50    55     9
   46    51    52    53     9
   46    51    52   145     9
   50    51    52    53     9
   50    51    52   145     9
   51    52    53    54     9
   51    52    53   152     9
  145    52    53   152     9
   51    52   145   144     9
   51    52   145   146     9
   53    52   145   144     9
   53    52   145   146     9
   54    53    52   145     9
   52    53    54    55     9
   52    53    54    59     9
   52    53   152   151     9
   52    53   152   153     9
   54    53   152   151     9
   54    53   152   153     9
   55    54    53   152     9
   59    54    53   152     9
   53    54    55    56     9
   53    54    59    58     9
   53    54    59    60     9
   55    54    59    58     9
   55    54    59    60     9
   50    55    54    53     9
   50    55    54    59     9
   56    55    54    59     9
   50    55    56    57     9
   50    55    56  1013     9
   54    55    56    57     9
   54    55    56  1013     9
   55    56    57    58     9
   55    56    57  1020     9
 1013    56    57  1020     9
   55    56  1013  1012     9
   55    56  1013  1014     9
   57    56  1013  1012     9
   57    56  1013  1014     9
   58    57    56  1013     9
   56    57    58    59     9
   56    57    58    63     9
   56    57  1020  1019     9
   56    57  1020  1021     9
   58    57  1020  1019     9
   58    57  1020  1021     9
   59    58    57  1020     9
   63    58    57  1020     9
   57    58    59    60     9
   57    58    63    62     9
   57    58    63    64     9
   59    58    63    62     9
   59    58    63    64     9
   54    59    58    57     9
   54    59    58    63     9
   60    59    58    63     9
   54    59    60    61     9
   54    59    60   153     9
   58    59    60    61     9
   58    59    60   153     9
   59    60    61    62     9
   59    60    61   160     9
  153    60    61   160     9
   59    60   153   152     9
   59    60   153   154     9
   61    60   153   152     9
   61    60   153   154     9
   62    61    60   153     9
   60    61    62    63     9
   60    61    62    67     9
   60    61   160   159     9
   60    61   160   161     9
   62    61   160   159     9
   62    61   160   161     9
   63    62    61   160     9
   67    62    61   160     9
   61    62    63    64     9
   61    62    67    66     9
   61    62    67    68     9
   63    62    67    66     9
   63    62    67    68     9
   58    63    62    61     9
   58    63    62    67     9
   64    63    62    67     9
   58    63    64    65     9
   58    63    64  1021     9
   62    63    64    65     9
   62    63    64  1021     9
   63    64    65    66     9
   63    64    65  1028     9
 1021    64    65  1028     9
   63    64  1021  1020     9
   63    64  1021  1022     9
   65    64  1021  1020     9
   65    64  1021  1022     9
   66    65    64  1021     9
   64    65    66    67     9
   64    65    66    71     9
   64    65  1028  1027     9
   64    65  1028  1029     9
   66    65  1028  1027     9
   66    65  1028  1029     9
   67    66    65  1028     9
   71    66    65  1028     9
   65    66    67    68     9
   65    66    71    70     9
   65    66    71    72     9
   67    66    71    70     9
   67    66    71    72     9
   62    67    66    65     9
   62    67    66    71     9
   68    67    66    71     9
   62    67    68    69     9
   62    67    68   161     9
   66    67    68    69     9
   66    67    68   161     9
   67    68    69    70     9
   67    68    69   168     9
  161    68    69   168     9
   67    68   161   160     9
   67    68   161   162     9
   69    68   161   160     9
   69    68   161   162     9
   70    69    68   161     9
   68    69    70    71     9
   68    69    70    75     9
   68    69   168   167     9
   68    69   168   169     9
   70    69   168   167     9
   70    69   168   169     9
   71    70    69   168     9
   75    70    69   168     9
   69    70    71    72     9
   69    70    75    74     9
   69    70    75    76     9
   71    70    75    74     9
   71    70    75    76     9
   66    71    70    69     9
   66    71    70    75     9
   72    71    70    75     9
   66    71    72    73     9
   66    71    72  1029     9
   70    71    72    73     9
   70    71    72  1029     9
   71    72    73    74     9
   71    72    73  1036     9
 1029    72    73  1036     9
   71    72  1029  1028     9
   71    72  1029  1030     9
   73    72  1029  1028     9
   73    72  1029  1030     9
   74    73    72  1029     9
   72    73    74    75     9
   72    73    74    79     9
   72    73  1036  1035     9
   72    73  1036  1037     9
   74    73  1036  1035     9
   74    73  1036  1037     9
   75    74    73  1036     9
   79    74    73  1036     9
   73    74    75    76     9
   73    74    79    78     9
   73    74    79    80     9
   75    74    79    78     9
   75    74    79    80     9
   70    75    74    73     9
   70    75    74    79     9
   76    75    74    79     9
   70    75    76    77     9
   70    75    76   169     9
   74    75    76    77     9
   74    75    76   169     9
   75    76    77    78     9
   75    76    77   176     9
  169    76    77   176     9
   75    76   169   168     9
   75    76   169   170     9
   77    76   169   168     9
   77    76   169   170     9
   78    77    76   169     9
   76    77    78    79     9
   76    77    78    83     9
   76    77   176   175     9
   76    77   176   177     9
   78    77   176   175     9
   78    77   176   177     9
   79    78    77   176     9
   83    78    77   176     9
   77    78    79    80     9
   77    78    83    82     9
   77    78    83    84     9
   79    78    83    82     9
   79    78    83    84     9
   74    79    78    77     9
   74    79    78    83     9
   80    79    78    83     9
   74    79    80    81     9
   74    79    80  1037     9
   78    79    80    81     9
   78    79    80  1037     9
   79    80    81    82     9
   79    80    81  1044     9
 1037    80    81  1044     9
   79    80  1037  1036     9
   79    80  1037  1038     9
   81    80  1037  1036     9
   81    80  1037  1038     9
   82    81    80  1037     9
   80    81    82    83     9
   80    81    82    87     9
   80    81  1044  1043     9
   80    81  1044  1045     9
   82    81  1044  1043     9
   82    81  1044  1045     9
   83    82    81  1044     9
   87    82    81  1044     9
   81    82    83    84     9
   81    82    87    86     9
   81    82    87    88     9
   83    82    87    86     9
   83    82    87    88     9
   78    83    82    81     9
   78    83    82    87     9
   84    83    82    87     9
   78    83    84    85     9
   78    83    84   177     9
   82    83    84    85     9
   82    83    84   177     9
   83    84    85    86     9
   83    84    85   184     9
  177    84    85   184     9
   83    84   177   176     9
   83    84   177   178     9
   85    84   177   176     9
   85    84   177   178     9
   86    85    84   177     9
   84    85    86    87     9
   84    85    86    91     9
   84    85   184   183     9
   84    85   184   185     9
   86    85   184   183     9
   86    85   184   185     9
   87    86    85   184     9
   91    86    85   184     9
   85    86    87    88     9
   85    86    91    90     9
   85    86    91    92     9
   87    86    91    90     9
   87    86    91    92     9
   82    87    86    85     9
   82    87    86    91     9
   88    87    86    91     9
   82    87    88    89     9
   82    87    88  1045     9
   86    87    88    89     9
   86    87    88  1045     9
   87    88    89    90     9
   87    88    89  1052     9
 1045    88    89  1052     9
   87    88  1045  1044     9
   87    88  1045  1046     9
   89    88  1045  1044     9
   89    88  1045  1046     9
   90    89    88  1045     9
   88    89    90    91     9
   88    89    90    95     9
   88    89  1052  1051     9
   88    89  1052  1053     9
   90    89  1052  1051     9
   90    89  1052  1053     9
   91    90    89  1052     9
   95    90    89  1052     9
   89    90    91    92     9
   89    90    95    94     9
   89    90    95    96     9
   91    90    95    94     9
   91    90    95    96     9
   86    91    90    89     9
   86    91    90    95     9
   92    91    90    95     9
   86    91    92    93     9
   86    91    92   185     9
   90    91    92    93     9
   90    91    92   185     9
   91    92    93    94     9
   91    92    93   192     9
  185    92    93   192     9
   91    92   185   184     9
   91    92   185   186     9
   93    92   185   184     9
   93    92   185   186     9
   94    93    92   185     9
   92    93    94    95     9
   92    93   192    97     9
   92    93   192   191     9
   94    93   192    97     9
   94    93   192   191     9
    3    94    93    92     9
    3    94    93   192     9
   95    94    93   192     9
    3    94    95    90     9
    3    94    95    96     9
   93    94    95    96     9
   90    95    94    93     9
   90    95    96  1053     9
   94    95    96  1053     9
   95    96     1   964     9
    1    96    95    90     9
    1    96    95    94     9
    1    96  1053  1052     9
    1    96  1053  1054     9
   95    96  1053  1052     9
   95    96  1053  1054     9
    4    97    98    99     9
    4    97    98   103     9
    4    97   192    93     9
    4    97   192   191     9
   98    97   192   191     9
   99    98    97   192     9
  103    98    97   192     9
   97    98    99   100     9
   97    98    99   190     9
  103    98    99   190     9
   97    98   103   102     9
   97    98   103   104     9
   99    98   103   102     9
   99    98   103   104     9
  100    99    98   103     9
   98    99   100   101     9
   98    99   100   193     9
  190    99   100   193     9
   98    99   190   189     9
   98    99   190   191     9
  100    99   190   189     9
  100    99   190   191     9
  101   100    99   190     9
   99   100   101   102     9
   99   100   101   200     9
  193   100   101   200     9
   99   100   193   194     9
   99   100   193   288     9
  101   100   193   194     9
  101   100   193   288     9
  102   101   100   193     9
  100   101   102   103     9
  100   101   102   107     9
  100   101   200   199     9
  100   101   200   201     9
  102   101   200   199     9
  102   101   200   201     9
  103   102   101   200     9
  107   102   101   200     9
  101   102   103   104     9
  101   102   107   106     9
  101   102   107   108     9
  103   102   107   106     9
  103   102   107   108     9
   98   103   102   101     9
   98   103   102   107     9
  104   103   102   107     9
   98   103   104   105     9
  102   103   104   105     9
    5   104   103    98     9
    5   104   103   102     9
    5   104   105    12     9
    5   104   105   106     9
  103   104   105   106     9
   12   105   104   103     9
   12   105   106   107     9
   12   105   106   111     9
  104   105   106   107     9
  104   105   106   111     9
  105   106   107   108     9
  105   106   111   110     9
  105   106   111   112     9
  107   106   111   110     9
  107   106   111   112     9
  102   107   106   105     9
  102   107   106   111     9
  108   107   106   111     9
  102   107   108   109     9
  102   107   108   201     9
  106   107   108   109     9
  106   107   108   201     9
  107   108   109   110     9
  107   108   109   208     9
  201   108   109   208     9
  107   108   201   200     9
  107   108   201   202     9
  109   108   201   200     9
  109   108   201   202     9
  110   109   108   201     9
  108   109   110   111     9
  108   109   110   115     9
  108   109   208   207     9
  108   109   208   209     9
  110   109   208   207     9
  110   109   208   209     9
  111   110   109   208     9
  115   110   109   208     9
  109   110   111   112     9
  109   110   115   114     9
  109   110   115   116     9
  111   110   115   114     9
  111   110   115   116     9
  106   111   110   109     9
  106   111   110   115     9
  112   111   110   115     9
  106   111   112   113     9
  110   111   112   113     9
   13   112   111   106     9
   13   112   111   110     9
   13   112   113    20     9
   13   112   113   114     9
  111   112   113   114     9
   20   113   112   111     9
   20   113   114   115     9
   20   113   114   119     9
  112   113   114   115     9
  112   113   114   119     9
  113   114   115   116     9
  113   114   119   118     9
  113   114   119   120     9
  115   114   119   118     9
  115   114   119   120     9
  110   115   114   113     9
  110   115   114   119     9
  116   115   114   119     9
  110   115   116   117     9
  110   115   116   209     9
  114   115   116   117     9
  114   115   116   209     9
  115   116   117   118     9
  115   116   117   216     9
  209   116   117   216     9
  115   116   209   208     9
  115   116   209   210     9
  117   116   209   208     9
  117   116   209   210     9
  118   117   116   209     9
  116   117   118   119     9
  116   117   118   123     9
  116   117   216   215     9
  116   117   216   217     9
  118   117   216   215     9
  118   117   216   217     9
  119   118   117   216     9
  123   118   117   216     9
  117   118   119   120     9
  117   118   123   122     9
  117   118   123   124     9
  119   118   123   122     9
  119   118   123   124     9
  114   119   118   117     9
  114   119   118   123     9
  120   119   118   123     9
  114   119   120   121     9
  118   119   120   121     9
   21   120   119   114     9
   21   120   119   118     9
   21   120   121    28     9
   21   120   121   122     9
  119   120   121   122     9
   28   121   120   119     9
   28   121   122   123     9
   28   121   122   127     9
  120   121   122   123     9
  120   121   122   127     9
  121   122   123   124     9
  121   122   127   126     9
  121   122   127   128     9
  123   122   127   126     9
  123   122   127   128     9
  118   123   122   121     9
  118   123   122   127     9
  124   123   122   127     9
  118   123   124   125     9
  118   123   124   217     9
  122   123   124   125     9
  122   123   124   217     9
  123   124   125   126     9
  123   124   125   224     9
  217   124   125   224     9
  123   124   217   216     9
  123   124   217   218     9
  125   124   217   216     9
  125   124   217   218     9
  126   125   124   217     9
  124   125   126   127     9
  124   125   126   131     9
  124   125   224   223     9
  124   125   224   225     9
  126   125   224   223     9
  126   125   224   225     9
  127   126   125   224     9
  131   126   125   224     9
  125   126   127   128     9
  125   126   131   130     9
  125   126   131   132     9
  127   126   131   130     9
  127   126   131   132     9
  122   127   126   125     9
  122   127   126   131     9
  128   127   126   131     9
  122   127   128   129     9
  126   127   128   129     9
   29   128   127   122     9
   29   128   127   126     9
   29   128   129    36     9
   29   128   129   130     9
  127   128   129   130     9
   36   129   128   127     9
   36   129   130   131     9
   36   129   130   135     9
  128   129   130   131     9
  128   129   130   135     9
  129   130   131   132     9
  129   130   135   134     9
  129   130   135   136     9
  131   130   135   134     9
  131   130   135   136     9
  126   131   130   129     9
  126   131   130   135     9
  132   131   130   135     9
  126   131   132   133     9
  126   131   132   225     9
  130   131   132   133     9
  130   131   132   225     9
  131   132   133   134     9
  131   132   133   232     9
  225   132   133   232     9
  131   132   225   224     9
  131   132   225   226     9
  133   132   225   224     9
  133   132   225   226     9
  134   133   132   225     9
  132   133   134   135     9
  132   133   134   139     9
  132   133   232   231     9
  132   133   232   233     9
  134   133   232   231     9
  134   133   232   233     9
  135   134   133   232     9
  139   134   133   232     9
  133   134   135   136     9
  133   134   139   138     9
  133   134   139   140     9
  135   134   139   138     9
  135   134   139   140     9
  130   135   134   133     9
  130   135   134   139     9
  136   135   134   139     9
  130   135   136   137     9
  134   135   136   137     9
   37   136   135   130     9
   37   136   135   134     9
   37   136   137    44     9
   37   136   137   138     9
  135   136   137   138     9
   44   137   136   135     9
   44   137   138   139     9
   44   137   138   143     9
  136   137   138   139     9
  136   137   138   143     9
  137   138   139   140     9
  137   138   143   142     9
  137   138   143   144     9
  139   138   143   142     9
  139   138   143   144     9
  134   139   138   137     9
  134   139   138   143     9
  140   139   138   143     9
  134   139   140   141     9
  134   139   140   233     9
  138   139   140   141     9
  138   139   140   233     9
  139   140   141   142     9
  139   140   141   240     9
  233   140   141   240     9
  139   140   233   232     9
  139   140   233   234     9
  141   140   233   232     9
  141   140   233   234     9
  142   141   140   233     9
  140   141   142   143     9
  140   141   142   147     9
  140   141   240   239     9
  140   141   240   241     9
  142   141   240   239     9
  142   141   240   241     9
  143   142   141   240     9
  147   142   141   240     9
  141   142   143   144     9
  141   142   147   146     9
  141   142   147   148     9
  143   142   147   146     9
  143   142   147   148     9
  138   143   142   141     9
  138   143   142   147     9
  144   143   142   147     9
  138   143   144   145     9
  142   143   144   145     9
   45   144   143   138     9
   45   144   143   142     9
   45   144   145    52     9
   45   144   145   146     9
  143   144   145   146     9
   52   145   144   143     9
   52   145   146   147     9
   52   145   146   151     9
  144   145   146   147     9
  144   145   146   151     9
  145   146   147   148     9
  145   146   151   150     9
  145   146   151   152     9
  147   146   151   150     9
  147   146   151   152     9
  142   147   146   145     9
  142   147   146   151     9
  148   147   146   151     9
  142   147   148   149     9
  142   147   148   241     9
  146   147   148   149     9
  146   147   148   241     9
  147   148   149   150     9
  147   148   149   248     9
  241   148   149   248     9
  147   148   241   240     9
  147   148   241   242     9
  149   148   241   240     9
  149   148   241   242     9
  150   149   148   241     9
  148   149   150   151     9
  148   149   150   155     9
  148   149   248   247     9
  148   149   248   249     9
  150   149   248   247     9
  150   149   248   249     9
  151   150   149   248     9
  155   150   149   248     9
  149   150   151   152     9
  149   150   155   154     9
  149   150   155   156     9
  151   150   155   154     9
  151   150   155   156     9
  146   151   150   149     9
  146   151   150   155     9
  152   151   150   155     9
  146   151   152   153     9
  150   151   152   153     9
   53   152   151   146     9
   53   152   151   150     9
   53   152   153    60     9
   53   152   153   154     9
  151   152   153   154     9
   60   153   152   151     9
   60   153   154   155     9
   60   153   154   159     9
  152   153   154   155     9
  152   153   154   159     9
  153   154   155   156     9
  153   154   159   158     9
  153   154   159   160     9
  155   154   159   158     9
  155   154   159   160     9
  150   155   154   153     9
  150   155   154   159     9
  156   155   154   159     9
  150   155   156   157     9
  150   155   156   249     9
  154   155   156   157     9
  154   155   156   249     9
  155   156   157   158     9
  155   156   157   256     9
  249   156   157   256     9
  155   156   249   248     9
  155   156   249   250     9
  157   156   249   248     9
  157   156   249   250     9
  158   157   156   249     9
  156   157   158   159     9
  156   157   158   163     9
  156   157   256   255     9
  156   157   256   257     9
  158   157   256   255     9
  158   157   256   257     9
  159   158   157   256     9
  163   158   157   256     9
  157   158   159   160     9
  157   158   163   162     9
  157   158   163   164     9
  159   158   163   162     9
  159   158   163   164     9
  154   159   158   157     9
  154   159   158   163     9
  160   159   158   163     9
  154   159   160   161     9
  158   159   160   161     9
   61   160   159   154     9
   61   160   159   158     9
   61   160   161    68     9
   61   160   161   162     9
  159   160   161   162     9
   68   161   160   159     9
   68   161   162   163     9
   68   161   162   167     9
  160   161   162   163     9
  160   161   162   167     9
  161   162   163   164     9
  161   162   167   166     9
  161   162   167   168     9
  163   162   167   166     9
  163   162   167   168     9
  158   163   162   161     9
  158   163   162   167     9
  164   163   162   167     9
  158   163   164   165     9
  158   163   164   257     9
  162   163   164   165     9
  162   163   164   257     9
  163   164   165   166     9
  163   164   165   264     9
  257   164   165   264     9
  163   164   257   256     9
  163   164   257   258     9
  165   164   257   256     9
  165   164   257   258     9
  166   165   164   257     9
  164   165   166   167     9
  164   165   166   171     9
  164   165   264   263     9
  164   165   264   265     9
  166   165   264   263     9
  166   165   264   265     9
  167   166   165   264     9
  171   166   165   264     9
  165   166   167   168     9
  165   166   171   170     9
  165   166   171   172     9
  167   166   171   170     9
  167   166   171   172     9
  162   167   166   165     9
  162   167   166   171     9
  168   167   166   171     9
  162   167   168   169     9
  166   167   168   169     9
   69   168   167   162     9
   69   168   167   166     9
   69   168   169    76     9
   69   168   169   170     9
  167   168   169   170     9
   76   169   168   167     9
   76   169   170   171     9
   76   169   170   175     9
  168   169   170   171     9
  168   169   170   175     9
  169   170   171   172     9
  169   170   175   174     9
  169   170   175   176     9
  171   170   175   174     9
  171   170   175   176     9
  166   171   170   169     9
  166   171   170   175     9
  172   171   170   175     9
  166   171   172   173     9
  166   171   172   265     9
  170   171   172   173     9
  170   171   172   265     9
  171   172   173   174     9
  171   172   173   272     9
  265   172   173   272     9
  171   172   265   264     9
  171   172   265   266     9
  173   172   265   264     9
  173   172   265   266     9
  174   173   172   265     9
  172   173   174   175     9
  172   173   174   179     9
  172   173   272   271     9
  172   173   272   273     9
  174   173   272   271     9
  174   173   272   273     9
  175   174   173   272     9
  179   174   173   272     9
  173   174   175   176     9
  173   174   179   178     9
  173   174   179   180     9
  175   174   179   178     9
  175   174   179   180     9
  170   175   174   173     9
  170   175   174   179     9
  176   175   174   179     9
  170   175   176   177     9
  174   175   176   177     9
   77   176   175   170     9
   77   176   175   174     9
   77   176   177    84     9
   77   176   177   178     9
  175   176   177   178     9
   84   177   176   175     9
   84   177   178   179     9
   84   177   178   183     9
  176   177   178   179     9
  176   177   178   183     9
  177   178   179   180     9
  177   178   183   182     9
  177   178   183   184     9
  179   178   183   182     9
  179   178   183   184     9
  174   179   178   177     9
  174   179   178   183     9
  180   179   178   183     9
  174   179   180   181     9
  174   179   180   273     9
  178   179   180   181     9
  178   179   180   273     9
  179   180   181   182     9
  179   180   181   280     9
  273   180   181   280     9
  179   180   273   272     9
  179   180   273   274     9
  181   180   273   272     9
  181   180   273   274     9
  182   181   180   273     9
  180   181   182   183     9
  180   181   182   187     9
  180   181   280   279     9
  180   181   280   281     9
  182   181   280   279     9
  182   181   280   281     9
  183   182   181   280     9
  187   182   181   280     9
  181   182   183   184     9
  181   182   187   186     9
  181   182   187   188     9
  183   182   187   186     9
  183   182   187   188     9
  178   183   182   181     9
  178   183   182   187     9
  184   183   182   187     9
  178   183   184   185     9
  182   183   184   185     9
   85   184   183   178     9
   85   184   183   182     9
   85   184   185    92     9
   85   184   185   186     9
  183   184   185   186     9
   92   185   184   183     9
   92   185   186   187     9
   92   185   186   191     9
  184   185   186   187     9
  184   185   186   191     9
  185   186   187   188     9
  185   186   191   190     9
  185   186   191   192     9
  187   186   191   190     9
  187   186   191   192     9
  182   187   186   185     9
  182   187   186   191     9
  188   187   186   191     9
  182   187   188   189     9
  182   187   188   281     9
  186   187   188   189     9
  186   187   188   281     9
  187   188   189   190     9
  187   188   189   288     9
  281   188   189   288     9
  187   188   281   280     9
  187   188   281   282     9
  189   188   281   280     9
  189   188   281   282     9
  190   189   188   281     9
  188   189   190   191     9
  188   189   288   193     9
  188   189   288   287     9
  190   189   288   193     9
  190   189   288   287     9
   99   190   189   188     9
   99   190   189   288     9
  191   190   189   288     9
   99   190   191   186     9
   99   190   191   192     9
  189   190   191   192     9
  186   191   190   189     9
   93   192    97    98     9
   93   192   191   186     9
   93   192   191   190     9
   97   192   191   186     9
   97   192   191   190     9
  100   193   194   195     9
  100   193   194   199     9
  100   193   288   189     9
  100   193   288   287     9
  194   193   288   287     9
  195   194   193   288     9
  199   194   193   288     9
  193   194   195   196     9
  193   194   195   286     9
  199   194   195   286     9
  193   194   199   198     9
  193   194   199   200     9
  195   194   199   198     9
  195   194   199   200     9
  196   195   194   199     9
  194   195   196   197     9
  194   195   196   289     9
  286   195   196   289     9
  194   195   286   285     9
  194   195   286   287     9
  196   195   286   285     9
  196   195   286   287     9
  197   196   195   286     9
  195   196   197   198     9
  195   196   197   296     9
  289   196   197   296     9
  195   196   289   290     9
  195   196   289   384     9
  197   196   289   290     9
  197   196   289   384     9
  198   197   196   289     9
  196   197   198   199     9
  196   197   198   203     9
  196   197   296   295     9
  196   197   296   297     9
  198   197   296   295     9
  198   197   296   297     9
  199   198   197   296     9
  203   198   197   296     9
  197   198   199   200     9
  197   198   203   202     9
  197   198   203   204     9
  199   198   203   202     9
  199   198   203   204     9
  194   199   198   197     9
  194   199   198   203     9
  200   199   198   203     9
  194   199   200   201     9
  198   199   200   201     9
  101   200   199   194     9
  101   200   199   198     9
  101   200   201   108     9
  101   200   201   202     9
  199   200   201   202     9
  108   201   200   199     9
  108   201   202   203     9
  108   201   202   207     9
  200   201   202   203     9
  200   201   202   207     9
  201   202   203   204     9
  201   202   207   206     9
  201   202   207   208     9
  203   202   207   206     9
  203   202   207   208     9
  198   203   202   201     9
  198   203   202   207     9
  204   203   202   207     9
  198   203   204   205     9
  198   203   204   297     9
  202   203   204   205     9
  202   203   204   297     9
  203   204   205   206     9
  203   204   205   304     9
  297   204   205   304     9
  203   204   297   296     9
  203   204   297   298     9
  205   204   297   296     9
  205   204   297   298     9
  206   205   204   297     9
  204   205   206   207     9
  204   205   206   211     9
  204   205   304   303     9
  204   205   304   305     9
  206   205   304   303     9
  206   205   304   305     9
  207   206   205   304     9
  211   206   205   304     9
  205   206   207   208     9
  205   206   211   210     9
  205   206   211   212     9
  207   206   211   210     9
  207   206   211   212     9
  202   207   206   205     9
  202   207   206   211     9
  208   207   206   211     9
  202   207   208   209     9
  206   207   208   209     9
  109   208   207   202     9
  109   208   207   206     9
  109   208   209   116     9
  109   208   209   210     9
  207   208   209   210     9
  116   209   208   207     9
  116   209   210   211     9
  116   209   210   215     9
  208   209   210   211     9
  208   209   210   215     9
  209   210   211   212     9
  209   210   215   214     9
  209   210   215   216     9
  211   210   215   214     9
  211   210   215   216     9
  206   211   210   209     9
  206   211   210   215     9
  212   211   210   215     9
  206   211   212   213     9
  206   211   212   305     9
  210   211   212   213     9
  210   211   212   305     9
  211   212   213   214     9
  211   212   213   312     9
  305   212   213   312     9
  211   212   305   304     9
  211   212   305   306     9
  213   212   305   304     9
  213   212   305   306     9
  214   213   212   305     9
  212   213   214   215     9
  212   213   214   219     9
  212   213   312   311     9
  212   213   312   313     9
  214   213   312   311     9
  214   213   312   313     9
  215   214   213   312     9
  219   214   213   312     9
  213   214   215   216     9
  213   214   219   218     9
  213   214   219   220     9
  215   214   219   218     9
  215   214   219   220     9
  210   215   214   213     9
  210   215   214   219     9
  216   215   214   219     9
  210   215   216   217     9
  214   215   216   217     9
  117   216   215   210     9
  117   216   215   214     9
  117   216   217   124     9
  117   216   217   218     9
  215   216   217   218     9
  124   217   216   215     9
  124   217   218   219     9
  124   217   218   223     9
  216   217   218   219     9
  216   217   218   223     9
  217   218   219   220     9
  217   218   223   222     9
  217   218   223   224     9
  219   218   223   222     9
  219   218   223   224     9
  214   219   218   217     9
  214   219   218   223     9
  220   219   218   223     9
  214   219   220   221     9
  214   219   220   313     9
  218   219   220   221     9
  218   219   220   313     9
  219   220   221   222     9
  219   220   221   320     9
  313   220   221   320     9
  219   220   313   312     9
  219   220   313   314     9
  221   220   313   312     9
  221   220   313   314     9
  222   221   220   313     9
  220   221   222   223     9
  220   221   222   227     9
  220   221   320   319     9
  220   221   320   321     9
  222   221   320   319     9
  222   221   320   321     9
  223   222   221   320     9
  227   222   221   320     9
  221   222   223   224     9
  221   222   227   226     9
  221   222   227   228     9
  223   222   227   226     9
  223   222   227   228     9
  218   223   222   221     9
  218   223   222   227     9
  224   223   222   227     9
  218   223   224   225     9
  222   223   224   225     9
  125   224   223   218     9
  125   224   223   222     9
  125   224   225   132     9
  125   224   225   226     9
  223   224   225   226     9
  132   225   224   223     9
  132   225   226   227     9
  132   225   226   231     9
  224   225   226   227     9
  224   225   226   231     9
  225   226   227   228     9
  225   226   231   230     9
  225   226   231   232     9
  227   226   231   230     9
  227   226   231   232     9
  222   227   226   225     9
  222   227   226   231     9
  228   227   226   231     9
  222   227   228   229     9
  222   227   228   321     9
  226   227   228   229     9
  226   227   228   321     9
  227   228   229   230     9
  227   228   229   328     9
  321   228   229   328     9
  227   228   321   320     9
  227   228   321   322     9
  229   228   321   320     9
  229   228   321   322     9
  230   229   228   321     9
  228   229   230   231     9
  228   229   230   235     9
  228   229   328   327     9
  228   229   328   329     9
  230   229   328   327     9
  230   229   328   329     9
  231   230   229   328     9
  235   230   229   328     9
  229   230   231   232     9
  229   230   235   234     9
  229   230   235   236     9
  231   230   235   234     9
  231   230   235   236     9
  226   231   230   229     9
  226   231   230   235     9
  232   231   230   235     9
  226   231   232   233     9
  230   231   232   233     9
  133   232   231   226     9
  133   232   231   230     9
  133   232   233   140     9
  133   232   233   234     9
  231   232   233   234     9
  140   233   232   231     9
  140   233   234   235     9
  140   233   234   239     9
  232   233   234   235     9
  232   233   234   239     9
  233   234   235   236     9
  233   234   239   238     9
  233   234   239   240     9
  235   234   239   238     9
  235   234   239   240     9
  230   235   234   233     9
  230   235   234   239     9
  236   235   234   239     9
  230   235   236   237     9
  230   235   236   329     9
  234   235   236   237     9
  234   235   236   329     9
  235   236   237   238     9
  235   236   237   336     9
  329   236   237   336     9
  235   236   329   328     9
  235   236   329   330     9
  237   236   329   328     9
  237   236   329   330     9
  238   237   236   329     9
  236   237   238   239     9
  236   237   238   243     9
  236   237   336   335     9
  236   237   336   337     9
  238   237   336   335     9
  238   237   336   337     9
  239   238   237   336     9
  243   238   237   336     9
  237   238   239   240     9
  237   238   243   242     9
  237   238   243   244     9
  239   238   243   242     9
  239   238   243   244     9
  234   239   238   237     9
  234   239   238   243     9
  240   239   238   243     9
  234   239   240   241     9
  238   239   240   241     9
  141   240   239   234     9
  141   240   239   238     9
  141   240   241   148     9
  141   240   241   242     9
  239   240   241   242     9
  148   241   240   239     9
  148   241   242   243     9
  148   241   242   247     9
  240   241   242   243     9
  240   241   242   247     9
  241   242   243   244     9
  241   242   247   246     9
  241   242   247   248     9
  243   242   247   246     9
  243   242   247   248     9
  238   243   242   241     9
  238   243   242   247     9
  244   243   242   247     9
  238   243   244   245     9
  238   243   244   337     9
  242   243   244   245     9
  242   243   244   337     9
  243   244   245   246     9
  243   244   245   344     9
  337   244   245   344     9
  243   244   337   336     9
  243   244   337   338     9
  245   244   337   336     9
  245   244   337   338     9
  246   245   244   337     9
  244   245   246   247     9
  244   245   246   251     9
  244   245   344   343     9
  244   245   344   345     9
  246   245   344   343     9
  246   245   344   345     9
  247   246   245   344     9
  251   246   245   344     9
  245   246   247   248     9
  245   246   251   250     9
  245   246   251   252     9
  247   246   251   250     9
  247   246   251   252     9
  242   247   246   245     9
  242   247   246   251     9
  248   247   246   251     9
  242   247   248   249     9
  246   247   248   249     9
  149   248   247   242     9
  149   248   247   246     9
  149   248   249   156     9
  149   248   249   250     9
  247   248   249   250     9
  156   249   248   247     9
  156   249   250   251     9
  156   249   250   255     9
  248   249   250   251     9
  248   249   250   255     9
  249   250   251   252     9
  249   250   255   254     9
  249   250   255   256     9
  251   250   255   254     9
  251   250   255   256     9
  246   251   250   249     9
  246   251   250   255     9
  252   251   250   255     9
  246   251   252   253     9
  246   251   252   345     9
  250   251   252   253     9
  250   251   252   345     9
  251   252   253   254     9
  251   252   253   352     9
  345   252   253   352     9
  251   252   345   344     9
  251   252   345   346     9
  253   252   345   344     9
  253   252   345   346     9
  254   253   252   345     9
  252   253   254   255     9
  252   253   254   259     9
  252   253   352   351     9
  252   253   352   353     9
  254   253   352   351     9
  254   253   352   353     9
  255   254   253   352     9
  259   254   253   352     9
  253   254   255   256     9
  253   254   259   258     9
  253   254   259   260     9
  255   254   259   258     9
  255   254   259   260     9
  250   255   254   253     9
  250   255   254   259     9
  256   255   254   259     9
  250   255   256   257     9
  254   255   256   257     9
  157   256   255   250     9
  157   256   255   254     9
  157   256   257   164     9
  157   256   257   258     9
  255   256   257   258     9
  164   257   256   255     9
  164   257   258   259     9
  164   257   258   263     9
  256   257   258   259     9
  256   257   258   263     9
  257   258   259   260     9
  257   258   263   262     9
  257   258   263   264     9
  259   258   263   262     9
  259   258   263   264     9
  254   259   258   257     9
  254   259   258   263     9
  260   259   258   263     9
  254   259   260   261     9
  254   259   260   353     9
  258   259   260   261     9
  258   259   260   353     9
  259   260   261   262     9
  259   260   261   360     9
  353   260   261   360     9
  259   260   353   352     9
  259   260   353   354     9
  261   260   353   352     9
  261   260   353   354     9
  262   261   260   353     9
  260   261   262   263     9
  260   261   262   267     9
  260   261   360   359     9
  260   261   360   361     9
  262   261   360   359     9
  262   261   360   361     9
  263   262   261   360     9
  267   262   261   360     9
  261   262   263   264     9
  261   262   267   266     9
  261   262   267   268     9
  263   262   267   266     9
  263   262   267   268     9
  258   263   262   261     9
  258   263   262   267     9
  264   263   262   267     9
  258   263   264   265     9
  262   263   264   265     9
  165   264   263   258     9
  165   264   263   262     9
  165   264   265   172     9
  165   264   265   266     9
  263   264   265   266     9
  172   265   264   263     9
  172   265   266   267     9
  172   265   266   271     9
  264   265   266   267     9
  264   265   266   271     9
  265   266   267   268     9
  265   266   271   270     9
  265   266   271   272     9
  267   266   271   270     9
  267   266   271   272     9
  262   267   266   265     9
  262   267   266   271     9
  268   267   266   271     9
  262   267   268   269     9
  262   267   268   361     9
  266   267   268   269     9
  266   267   268   361     9
  267   268   269   270     9
  267   268   269   368     9
  361   268   269   368     9
  267   268   361   360     9
  267   268   361   362     9
  269   268   361   360     9
  269   268   361   362     9
  270   269   268   361     9
  268   269   270   271     9
  268   269   270   275     9
  268   269   368   367     9
  268   269   368   369     9
  270   269   368   367     9
  270   269   368   369     9
  271   270   269   368     9
  275   270   269   368     9
  269   270   271   272     9
  269   270   275   274     9
  269   270   275   276     9
  271   270   275   274     9
  271   270   275   276     9
  266   271   270   269     9
  266   271   270   275     9
  272   271   270   275     9
  266   271   272   273     9
  270   271   272   273     9
  173   272   271   266     9
  173   272   271   270     9
  173   272   273   180     9
  173   272   273   274     9
  271   272   273   274     9
  180   273   272   271     9
  180   273   274   275     9
  180   273   274   279     9
  272   273   274   275     9
  272   273   274   279     9
  273   274   275   276     9
  273   274   279   278     9
  273   274   279   280     9
  275   274   279   278     9
  275   274   279   280     9
  270   275   274   273     9
  270   275   274   279     9
  276   275   274   279     9
  270   275   276   277     9
  270   275   276   369     9
  274   275   276   277     9
  274   275   276   369     9
  275   276   277   278     9
  275   276   277   376     9
  369   276   277   376     9
  275   276   369   368     9
  275   276   369   370     9
  277   276   369   368     9
  277   276   369   370     9
  278   277   276   369     9
  276   277   278   279     9
  276   277   278   283     9
  276   277   376   375     9
  276   277   376   377     9
  278   277   376   375     9
  278   277   376   377     9
  279   278   277   376     9
  283   278   277   376     9
  277   278   279   280     9
  277   278   283   282     9
  277   278   283   284     9
  279   278   283   282     9
  279   278   283   284     9
  274   279   278   277     9
  274   279   278   283     9
  280   279   278   283     9
  274   279   280   281     9
  278   279   280   281     9
  181   280   279   274     9
  181   280   279   278     9
  181   280   281   188     9
  181   280   281   282     9
  279   280   281   282     9
  188   281   280   279     9
  188   281   282   283     9
  188   281   282   287     9
  280   281   282   283     9
  280   281   282   287     9
  281   282   283   284     9
  281   282   287   286     9
  281   282   287   288     9
  283   282   287   286     9
  283   282   287   288     9
  278   283   282   281     9
  278   283   282   287     9
  284   283   282   287     9
  278   283   284   285     9
  278   283   284   377     9
  282   283   284   285     9
  282   283   284   377     9
  283   284   285   286     9
  283   284   285   384     9
  377   284   285   384     9
  283   284   377   376     9
  283   284   377   378     9
  285   284   377   376     9
  285   284   377   378     9
  286   285   284   377     9
  284   285   286   287     9
  284   285   384   289     9
  284   285   384   383     9
  286   285   384   289     9
  286   285   384   383     9
  195   286   285   284     9
  195   286   285   384     9
  287   286   285   384     9
  195   286   287   282     9
  195   286   287   288     9
  285   286   287   288     9
  282   287   286   285     9
  189   288   193   194     9
  189   288   287   282     9
  189   288   287   286     9
  193   288   287   282     9
  193   288   287   286     9
  196   289   290   291     9
  196   289   290   295     9
  196   289   384   285     9
  196   289   384   383     9
  290   289   384   383     9
  291   290   289   384     9
  295   290   289   384     9
  289   290   291   292     9
  289   290   291   382     9
  295   290   291   382     9
  289   290   295   294     9
  289   290   295   296     9
  291   290   295   294     9
  291   290   295   296     9
  292   291   290   295     9
  290   291   292   293     9
  290   291   292   385     9
  382   291   292   385     9
  290   291   382   381     9
  290   291   382   383     9
  292   291   382   381     9
  292   291   382   383     9
  293   292   291   382     9
  291   292   293   294     9
  291   292   293   392     9
  385   292   293   392     9
  291   292   385   386     9
  291   292   385   480     9
  293   292   385   386     9
  293   292   385   480     9
  294   293   292   385     9
  292   293   294   295     9
  292   293   294   299     9
  292   293   392   391     9
  292   293   392   393     9
  294   293   392   391     9
  294   293   392   393     9
  295   294   293   392     9
  299   294   293   392     9
  293   294   295   296     9
  293   294   299   298     9
  293   294   299   300     9
  295   294   299   298     9
  295   294   299   300     9
  290   295   294   293     9
  290   295   294   299     9
  296   295   294   299     9
  290   295   296   297     9
  294   295   296   297     9
  197   296   295   290     9
  197   296   295   294     9
  197   296   297   204     9
  197   296   297   298     9
  295   296   297   298     9
  204   297   296   295     9
  204   297   298   299     9
  204   297   298   303     9
  296   297   298   299     9
  296   297   298   303     9
  297   298   299   300     9
  297   298   303   302     9
  297   298   303   304     9
  299   298   303   302     9
  299   298   303   304     9
  294   299   298   297     9
  294   299   298   303     9
  300   299   298   303     9
  294   299   300   301     9
  294   299   300   393     9
  298   299   300   301     9
  298   299   300   393     9
  299   300   301   302     9
  299   300   301   400     9
  393   300   301   400     9
  299   300   393   392     9
  299   300   393   394     9
  301   300   393   392     9
  301   300   393   394     9
  302   301   300   393     9
  300   301   302   303     9
  300   301   302   307     9
  300   301   400   399     9
  300   301   400   401     9
  302   301   400   399     9
  302   301   400   401     9
  303   302   301   400     9
  307   302   301   400     9
  301   302   303   304     9
  301   302   307   306     9
  301   302   307   308     9
  303   302   307   306     9
  303   302   307   308     9
  298   303   302   301     9
  298   303   302   307     9
  304   303   302   307     9
  298   303   304   305     9
  302   303   304   305     9
  205   304   303   298     9
  205   304   303   302     9
  205   304   305   212     9
  205   304   305   306     9
  303   304   305   306     9
  212   305   304   303     9
  212   305   306   307     9
  212   305   306   311     9
  304   305   306   307     9
  304   305   306   311     9
  305   306   307   308     9
  305   306   311   310     9
  305   306   311   312     9
  307   306   311   310     9
  307   306   311   312     9
  302   307   306   305     9
  302   307   306   311     9
  308   307   306   311     9
  302   307   308   309     9
  302   307   308   401     9
  306   307   308   309     9
  306   307   308   401     9
  307   308   309   310     9
  307   308   309   408     9
  401   308   309   408     9
  307   308   401   400     9
  307   308   401   402     9
  309   308   401   400     9
  309   308   401   402     9
  310   309   308   401     9
  308   309   310   311     9
  308   309   310   315     9
  308   309   408   407     9
  308   309   408   409     9
  310   309   408   407     9
  310   309   408   409     9
  311   310   309   408     9
  315   310   309   408     9
  309   310   311   312     9
  309   310   315   314     9
  309   310   315   316     9
  311   310   315   314     9
  311   310   315   316     9
  306   311   310   309     9
  306   311   310   315     9
  312   311   310   315     9
  306   311   312   313     9
  310   311   312   313     9
  213   312   311   306     9
  213   312   311   310     9
  213   312   313   220     9
  213   312   313   314     9
  311   312   313   314     9
  220   313   312   311     9
  220   313   314   315     9
  220   313   314   319     9
  312   313   314   315     9
  312   313   314   319     9
  313   314   315   316     9
  313   314   319   318     9
  313   314   319   320     9
  315   314   319   318     9
  315   314   319   320     9
  310   315   314   313     9
  310   315   314   319     9
  316   315   314   319     9
  310   315   316   317     9
  310   315   316   409     9
  314   315   316   317     9
  314   315   316   409     9
  315   316   317   318     9
  315   316   317   416     9
  409   316   317   416     9
  315   316   409   408     9
  315   316   409   410     9
  317   316   409   408     9
  317   316   409   410     9
  318   317   316   409     9
  316   317   318   319     9
  316   317   318   323     9
  316   317   416   415     9
  316   317   416   417     9
  318   317   416   415     9
  318   317   416   417     9
  319   318   317   416     9
  323   318   317   416     9
  317   318   319   320     9
  317   318   323   322     9
  317   318   323   324     9
  319   318   323   322     9
  319   318   323   324     9
  314   319   318   317     9
  314   319   318   323     9
  320   319   318   323     9
  314   319   320   321     9
  318   319   320   321     9
  221   320   319   314     9
  221   320   319   318     9
  221   320   321   228     9
  221   320   321   322     9
  319   320   321   322     9
  228   321   320   319     9
  228   321   322   323     9
  228   321   322   327     9
  320   321   322   323     9
  320   321   322   327     9
  321   322   323   324     9
  321   322   327   326     9
  321   322   327   328     9
  323   322   327   326     9
  323   322   327   328     9
  318   323   322   321     9
  318   323   322   327     9
  324   323   322   327     9
  318   323   324   325     9
  318   323   324   417     9
  322   323   324   325     9
  322   323   324   417     9
  323   324   325   326     9
  323   324   325   424     9
  417   324   325   424     9
  323   324   417   416     9
  323   324   417   418     9
  325   324   417   416     9
  325   324   417   418     9
  326   325   324   417     9
  324   325   326   327     9
  324   325   326   331     9
  324   325   424   423     9
  324   325   424   425     9
  326   325   424   423     9
  326   325   424   425     9
  327   326   325   424     9
  331   326   325   424     9
  325   326   327   328     9
  325   326   331   330     9
  325   326   331   332     9
  327   326   331   330     9
  327   326   331   332     9
  322   327   326   325     9
  322   327   326   331     9
  328   327   326   331     9
  322   327   328   329     9
  326   327   328   329     9
  229   328   327   322     9
  229   328   327   326     9
  229   328   329   236     9
  229   328   329   330     9
  327   328   329   330     9
  236   329   328   327     9
  236   329   330   331     9
  236   329   330   335     9
  328   329   330   331     9
  328   329   330   335     9
  329   330   331   332     9
  329   330   335   334     9
  329   330   335   336     9
  331   330   335   334     9
  331   330   335   336     9
  326   331   330   329     9
  326   331   330   335     9
  332   331   330   335     9
  326   331   332   333     9
  326   331   332   425     9
  330   331   332   333     9
  330   331   332   425     9
  331   332   333   334     9
  331   332   333   432     9
  425   332   333   432     9
  331   332   425   424     9
  331   332   425   426     9
  333   332   425   424     9
  333   332   425   426     9
  334   333   332   425     9
  332   333   334   335     9
  332   333   334   339     9
  332   333   432   431     9
  332   333   432   433     9
  334   333   432   431     9
  334   333   432   433     9
  335   334   333   432     9
  339   334   333   432     9
  333   334   335   336     9
  333   334   339   338     9
  333   334   339   340     9
  335   334   339   338     9
  335   334   339   340     9
  330   335   334   333     9
  330   335   334   339     9
  336   335   334   339     9
  330   335   336   337     9
  334   335   336   337     9
  237   336   335   330     9
  237   336   335   334     9
  237   336   337   244     9
  237   336   337   338     9
  335   336   337   338     9
  244   337   336   335     9
  244   337   338   339     9
  244   337   338   343     9
  336   337   338   339     9
  336   337   338   343     9
  337   338   339   340     9
  337   338   343   342     9
  337   338   343   344     9
  339   338   343   342     9
  339   338   343   344     9
  334   339   338   337     9
  334   339   338   343     9
  340   339   338   343     9
  334   339   340   341     9
  334   339   340   433     9
  338   339   340   341     9
  338   339   340   433     9
  339   340   341   342     9
  339   340   341   440     9
  433   340   341   440     9
  339   340   433   432     9
  339   340   433   434     9
  341   340   433   432     9
  341   340   433   434     9
  342   341   340   433     9
  340   341   342   343     9
  340   341   342   347     9
  340   341   440   439     9
  340   341   440   441     9
  342   341   440   439     9
  342   341   440   441     9
  343   342   341   440     9
  347   342   341   440     9
  341   342   343   344     9
  341   342   347   346     9
  341   342   347   348     9
  343   342   347   346     9
  343   342   347   348     9
  338   343   342   341     9
  338   343   342   347     9
  344   343   342   347     9
  338   343   344   345     9
  342   343   344   345     9
  245   344   343   338     9
  245   344   343   342     9
  245   344   345   252     9
  245   344   345   346     9
  343   344   345   346     9
  252   345   344   343     9
  252   345   346   347     9
  252   345   346   351     9
  344   345   346   347     9
  344   345   346   351     9
  345   346   347   348     9
  345   346   351   350     9
  345   346   351   352     9
  347   346   351   350     9
  347   346   351   352     9
  342   347   346   345     9
  342   347   346   351     9
  348   347   346   351     9
  342   347   348   349     9
  342   347   348   441     9
  346   347   348   349     9
  346   347   348   441     9
  347   348   349   350     9
  347   348   349   448     9
  441   348   349   448     9
  347   348   441   440     9
  347   348   441   442     9
  349   348   441   440     9
  349   348   441   442     9
  350   349   348   441     9
  348   349   350   351     9
  348   349   350   355     9
  348   349   448   447     9
  348   349   448   449     9
  350   349   448   447     9
  350   349   448   449     9
  351   350   349   448     9
  355   350   349   448     9
  349   350   351   352     9
  349   350   355   354     9
  349   350   355   356     9
  351   350   355   354     9
  351   350   355   356     9
  346   351   350   349     9
  346   351   350   355     9
  352   351   350   355     9
  346   351   352   353     9
  350   351   352   353     9
  253   352   351   346     9
  253   352   351   350     9
  253   352   353   260     9
  253   352   353   354     9
  351   352   353   354     9
  260   353   352   351     9
  260   353   354   355     9
  260   353   354   359     9
  352   353   354   355     9
  352   353   354   359     9
  353   354   355   356     9
  353   354   359   358     9
  353   354   359   360     9
  355   354   359   358     9
  355   354   359   360     9
  350   355   354   353     9
  350   355   354   359     9
  356   355   354   359     9
  350   355   356   357     9
  350   355   356   449     9
  354   355   356   357     9
  354   355   356   449     9
  355   356   357   358     9
  355   356   357   456     9
  449   356   357   456     9
  355   356   449   448     9
  355   356   449   450     9
  357   356   449   448     9
  357   356   449   450     9
  358   357   356   449     9
  356   357   358   359     9
  356   357   358   363     9
  356   357   456   455     9
  356   357   456   457     9
  358   357   456   455     9
  358   357   456   457     9
  359   358   357   456     9
  363   358   357   456     9
  357   358   359   360     9
  357   358   363   362     9
  357   358   363   364     9
  359   358   363   362     9
  359   358   363   364     9
  354   359   358   357     9
  354   359   358   363     9
  360   359   358   363     9
  354   359   360   361     9
  358   359   360   361     9
  261   360   359   354     9
  261   360   359   358     9
  261   360   361   268     9
  261   360   361   362     9
  359   360   361   362     9
  268   361   360   359     9
  268   361   362   363     9
  268   361   362   367     9
  360   361   362   363     9
  360   361   362   367     9
  361   362   363   364     9
  361   362   367   366     9
  361   362   367   368     9
  363   362   367   366     9
  363   362   367   368     9
  358   363   362   361     9
  358   363   362   367     9
  364   363   362   367     9
  358   363   364   365     9
  358   363   364   457     9
  362   363   364   365     9
  362   363   364   457     9
  363   364   365   366     9
  363   364   365   464     9
  457   364   365   464     9
  363   364   457   456     9
  363   364   457   458     9
  365   364   457   456     9
  365   364   457   458     9
  366   365   364   457     9
  364   365   366   367     9
  364   365   366   371     9
  364   365   464   463     9
  364   365   464   465     9
  366   365   464   463     9
  366   365   464   465     9
  367   366   365   464     9
  371   366   365   464     9
  365   366   367   368     9
  365   366   371   370     9
  365   366   371   372     9
  367   366   371   370     9
  367   366   371   372     9
  362   367   366   365     9
  362   367   366   371     9
  368   367   366   371     9
  362   367   368   369     9
  366   367   368   369     9
  269   368   367   362     9
  269   368   367   366     9
  269   368   369   276     9
  269   368   369   370     9
  367   368   369   370     9
  276   369   368   367     9
  276   369   370   371     9
  276   369   370   375     9
  368   369   370   371     9
  368   369   370   375     9
  369   370   371   372     9
  369   370   375   374     9
  369   370   375   376     9
  371   370   375   374     9
  371   370   375   376     9
  366   371   370   369     9
  366   371   370   375     9
  372   371   370   375     9
  366   371   372   373     9
  366   371   372   465     9
  370   371   372   373     9
  370   371   372   465     9
  371   372   373   374     9
  371   372   373   472     9
  465   372   373   472     9
  371   372   465   464     9
  371   372   465   466     9
  373   372   465   464     9
  373   372   465   466     9
  374   373   372   465     9
  372   373   374   375     9
  372   373   374   379     9
  372   373   472   471     9
  372   373   472   473     9
  374   373   472   471     9
  374   373   472   473     9
  375   374   373   472     9
  379   374   373   472     9
  373   374   375   376     9
  373   374   379   378     9
  373   374   379   380     9
  375   374   379   378     9
  375   374   379   380     9
  370   375   374   373     9
  370   375   374   379     9
  376   375   374   379     9
  370   375   376   377     9
  374   375   376   377     9
  277   376   375   370     9
  277   376   375   374     9
  277   376   377   284     9
  277   376   377   378     9
  375   376   377   378     9
  284   377   376   375     9
  284   377   378   379     9
  284   377   378   383     9
  376   377   378   379     9
  376   377   378   383     9
  377   378   379   380     9
  377   378   383   382     9
  377   378   383   384     9
  379   378   383   382     9
  379   378   383   384     9
  374   379   378   377     9
  374   379   378   383     9
  380   379   378   383     9
  374   379   380   381     9
  374   379   380   473     9
  378   379   380   381     9
  378   379   380   473     9
  379   380   381   382     9
  379   380   381   480     9
  473   380   381   480     9
  379   380   473   472     9
  379   380   473   474     9
  381   380   473   472     9
  381   380   473   474     9
  382   381   380   473     9
  380   381   382   383     9
  380   381   480   385     9
  380   381   480   479     9
  382   381   480   385     9
  382   381   480   479     9
  291   382   381   380     9
  291   382   381   480     9
  383   382   381   480     9
  291   382   383   378     9
  291   382   383   384     9
  381   382   383   384     9
  378   383   382   381     9
  285   384   289   290     9
  285   384   383   378     9
  285   384   383   382     9
  289   384   383   378     9
  289   384   383   382     9
  292   385   386   387     9
  292   385   386   391     9
  292   385   480   381     9
  292   385   480   479     9
  386   385   480   479     9
  387   386   385   480     9
  391   386   385   480     9
  385   386   387   388     9
  385   386   387   478     9
  391   386   387   478     9
  385   386   391   390     9
  385   386   391   392     9
  387   386   391   390     9
  387   386   391   392     9
  388   387   386   391     9
  386   387   388   389     9
  386   387   388   481     9
  478   387   388   481     9
  386   387   478   477     9
  386   387   478   479     9
  388   387   478   477     9
  388   387   478   479     9
  389   388   387   478     9
  387   388   389   390     9
  387   388   389   488     9
  481   388   389   488     9
  387   388   481   482     9
  387   388   481   576     9
  389   388   481   482     9
  389   388   481   576     9
  390   389   388   481     9
  388   389   390   391     9
  388   389   390   395     9
  388   389   488   487     9
  388   389   488   489     9
  390   389   488   487     9
  390   389   488   489     9
  391   390   389   488     9
  395   390   389   488     9
  389   390   391   392     9
  389   390   395   394     9
  389   390   395   396     9
  391   390   395   394     9
  391   390   395   396     9
  386   391   390   389     9
  386   391   390   395     9
  392   391   390   395     9
  386   391   392   393     9
  390   391   392   393     9
  293   392   391   386     9
  293   392   391   390     9
  293   392   393   300     9
  293   392   393   394     9
  391   392   393   394     9
  300   393   392   391     9
  300   393   394   395     9
  300   393   394   399     9
  392   393   394   395     9
  392   393   394   399     9
  393   394   395   396     9
  393   394   399   398     9
  393   394   399   400     9
  395   394   399   398     9
  395   394   399   400     9
  390   395   394   393     9
  390   395   394   399     9
  396   395   394   399     9
  390   395   396   397     9
  390   395   396   489     9
  394   395   396   397     9
  394   395   396   489     9
  395   396   397   398     9
  395   396   397   496     9
  489   396   397   496     9
  395   396   489   488     9
  395   396   489   490     9
  397   396   489   488     9
  397   396   489   490     9
  398   397   396   489     9
  396   397   398   399     9
  396   397   398   403     9
  396   397   496   495     9
  396   397   496   497     9
  398   397   496   495     9
  398   397   496   497     9
  399   398   397   496     9
  403   398   397   496     9
  397   398   399   400     9
  397   398   403   402     9
  397   398   403   404     9
  399   398   403   402     9
  399   398   403   404     9
  394   399   398   397     9
  394   399   398   403     9
  400   399   398   403     9
  394   399   400   401     9
  398   399   400   401     9
  301   400   399   394     9
  301   400   399   398     9
  301   400   401   308     9
  301   400   401   402     9
  399   400   401   402     9
  308   401   400   399     9
  308   401   402   403     9
  308   401   402   407     9
  400   401   402   403     9
  400   401   402   407     9
  401   402   403   404     9
  401   402   407   406     9
  401   402   407   408     9
  403   402   407   406     9
  403   402   407   408     9
  398   403   402   401     9
  398   403   402   407     9
  404   403   402   407     9
  398   403   404   405     9
  398   403   404   497     9
  402   403   404   405     9
  402   403   404   497     9
  403   404   405   406     9
  403   404   405   504     9
  497   404   405   504     9
  403   404   497   496     9
  403   404   497   498     9
  405   404   497   496     9
  405   404   497   498     9
  406   405   404   497     9
  404   405   406   407     9
  404   405   406   411     9
  404   405   504   503     9
  404   405   504   505     9
  406   405   504   503     9
  406   405   504   505     9
  407   406   405   504     9
  411   406   405   504     9
  405   406   407   408     9
  405   406   411   410     9
  405   406   411   412     9
  407   406   411   410     9
  407   406   411   412     9
  402   407   406   405     9
  402   407   406   411     9
  408   407   406   411     9
  402   407   408   409     9
  406   407   408   409     9
  309   408   407   402     9
  309   408   407   406     9
  309   408   409   316     9
  309   408   409   410     9
  407   408   409   410     9
  316   409   408   407     9
  316   409   410   411     9
  316   409   410   415     9
  408   409   410   411     9
  408   409   410   415     9
  409   410   411   412     9
  409   410   415   414     9
  409   410   415   416     9
  411   410   415   414     9
  411   410   415   416     9
  406   411   410   409     9
  406   411   410   415     9
  412   411   410   415     9
  406   411   412   413     9
  406   411   412   505     9
  410   411   412   413     9
  410   411   412   505     9
  411   412   413   414     9
  411   412   413   512     9
  505   412   413   512     9
  411   412   505   504     9
  411   412   505   506     9
  413   412   505   504     9
  413   412   505   506     9
  414   413   412   505     9
  412   413   414   415     9
  412   413   414   419     9
  412   413   512   511     9
  412   413   512   513     9
  414   413   512   511     9
  414   413   512   513     9
  415   414   413   512     9
  419   414   413   512     9
  413   414   415   416     9
  413   414   419   418     9
  413   414   419   420     9
  415   414   419   418     9
  415   414   419   420     9
  410   415   414   413     9
  410   415   414   419     9
  416   415   414   419     9
  410   415   416   417     9
  414   415   416   417     9
  317   416   415   410     9
  317   416   415   414     9
  317   416   417   324     9
  317   416   417   418     9
  415   416   417   418     9
  324   417   416   415     9
  324   417   418   419     9
  324   417   418   423     9
  416   417   418   419     9
  416   417   418   423     9
  417   418   419   420     9
  417   418   423   422     9
  417   418   423   424     9
  419   418   423   422     9
  419   418   423   424     9
  414   419   418   417     9
  414   419   418   423     9
  420   419   418   423     9
  414   419   420   421     9
  414   419   420   513     9
  418   419   420   421     9
  418   419   420   513     9
  419   420   421   422     9
  419   420   421   520     9
  513   420   421   520     9
  419   420   513   512     9
  419   420   513   514     9
  421   420   513   512     9
  421   420   513   514     9
  422   421   420   513     9
  420   421   422   423     9
  420   421   422   427     9
  420   421   520   519     9
  420   421   520   521     9
  422   421   520   519     9
  422   421   520   521     9
  423   422   421   520     9
  427   422   421   520     9
  421   422   423   424     9
  421   422   427   426     9
  421   422   427   428     9
  423   422   427   426     9
  423   422   427   428     9
  418   423   422   421     9
  418   423   422   427     9
  424   423   422   427     9
  418   423   424   425     9
  422   423   424   425     9
  325   424   423   418     9
  325   424   423   422     9
  325   424   425   332     9
  325   424   425   426     9
  423   424   425   426     9
  332   425   424   423     9
  332   425   426   427     9
  332   425   426   431     9
  424   425   426   427     9
  424   425   426   431     9
  425   426   427   428     9
  425   426   431   430     9
  425   426   431   432     9
  427   426   431   430     9
  427   426   431   432     9
  422   427   426   425     9
  422   427   426   431     9
  428   427   426   431     9
  422   427   428   429     9
  422   427   428   521     9
  426   427   428   429     9
  426   427   428   521     9
  427   428   429   430     9
  427   428   429   528     9
  521   428   429   528     9
  427   428   521   520     9
  427   428   521   522     9
  429   428   521   520     9
  429   428   521   522     9
  430   429   428   521     9
  428   429   430   431     9
  428   429   430   435     9
  428   429   528   527     9
  428   429   528   529     9
  430   429   528   527     9
  430   429   528   529     9
  431   430   429   528     9
  435   430   429   528     9
  429   430   431   432     9
  429   430   435   434     9
  429   430   435   436     9
  431   430   435   434     9
  431   430   435   436     9
  426   431   430   429     9
  426   431   430   435     9
  432   431   430   435     9
  426   431   432   433     9
  430   431   432   433     9
  333   432   431   426     9
  333   432   431   430     9
  333   432   433   340     9
  333   432   433   434     9
  431   432   433   434     9
  340   433   432   431     9
  340   433   434   435     9
  340   433   434   439     9
  432   433   434   435     9
  432   433   434   439     9
  433   434   435   436     9
  433   434   439   438     9
  433   434   439   440     9
  435   434   439   438     9
  435   434   439   440     9
  430   435   434   433     9
  430   435   434   439     9
  436   435   434   439     9
  430   435   436   437     9
  430   435   436   529     9
  434   435   436   437     9
  434   435   436   529     9
  435   436   437   438     9
  435   436   437   536     9
  529   436   437   536     9
  435   436   529   528     9
  435   436   529   530     9
  437   436   529   528     9
  437   436   529   530     9
  438   437   436   529     9
  436   437   438   439     9
  436   437   438   443     9
  436   437   536   535     9
  436   437   536   537     9
  438   437   536   535     9
  438   437   536   537     9
  439   438   437   536     9
  443   438   437   536     9
  437   438   439   440     9
  437   438   443   442     9
  437   438   443   444     9
  439   438   443   442     9
  439   438   443   444     9
  434   439   438   437     9
  434   439   438   443     9
  440   439   438   443     9
  434   439   440   441     9
  438   439   440   441     9
  341   440   439   434     9
  341   440   439   438     9
  341   440   441   348     9
  341   440   441   442     9
  439   440   441   442     9
  348   441   440   439     9
  348   441   442   443     9
  348   441   442   447     9
  440   441   442   443     9
  440   441   442   447     9
  441   442   443   444     9
  441   442   447   446     9
  441   442   447   448     9
  443   442   447   446     9
  443   442   447   448     9
  438   443   442   441     9
  438   443   442   447     9
  444   443   442   447     9
  438   443   444   445     9
  438   443   444   537     9
  442   443   444   445     9
  442   443   444   537     9
  443   444   445   446     9
  443   444   445   544     9
  537   444   445   544     9
  443   444   537   536     9
  443   444   537   538     9
  445   444   537   536     9
  445   444   537   538     9
  446   445   444   537     9
  444   445   446   447     9
  444   445   446   451     9
  444   445   544   543     9
  444   445   544   545     9
  446   445   544   543     9
  446   445   544   545     9
  447   446   445   544     9
  451   446   445   544     9
  445   446   447   448     9
  445   446   451   450     9
  445   446   451   452     9
  447   446   451   450     9
  447   446   451   452     9
  442   447   446   445     9
  442   447   446   451     9
  448   447   446   451     9
  442   447   448   449     9
  446   447   448   449     9
  349   448   447   442     9
  349   448   447   446     9
  349   448   449   356     9
  349   448   449   450     9
  447   448   449   450     9
  356   449   448   447     9
  356   449   450   451     9
  356   449   450   455     9
  448   449   450   451     9
  448   449   450   455     9
  449   450   451   452     9
  449   450   455   454     9
  449   450   455   456     9
  451   450   455   454     9
  451   450   455   456     9
  446   451   450   449     9
  446   451   450   455     9
  452   451   450   455     9
  446   451   452   453     9
  446   451   452   545     9
  450   451   452   453     9
  450   451   452   545     9
  451   452   453   454     9
  451   452   453   552     9
  545   452   453   552     9
  451   452   545   544     9
  451   452   545   546     9
  453   452   545   544     9
  453   452   545   546     9
  454   453   452   545     9
  452   453   454   455     9
  452   453   454   459     9
  452   453   552   551     9
  452   453   552   553     9
  454   453   552   551     9
  454   453   552   553     9
  455   454   453   552     9
  459   454   453   552     9
  453   454   455   456     9
  453   454   459   458     9
  453   454   459   460     9
  455   454   459   458     9
  455   454   459   460     9
  450   455   454   453     9
  450   455   454   459     9
  456   455   454   459     9
  450   455   456   457     9
  454   455   456   457     9
  357   456   455   450     9
  357   456   455   454     9
  357   456   457   364     9
  357   456   457   458     9
  455   456   457   458     9
  364   457   456   455     9
  364   457   458   459     9
  364   457   458   463     9
  456   457   458   459     9
  456   457   458   463     9
  457   458   459   460     9
  457   458   463   462     9
  457   458   463   464     9
  459   458   463   462     9
  459   458   463   464     9
  454   459   458   457     9
  454   459   458   463     9
  460   459   458   463     9
  454   459   460   461     9
  454   459   460   553     9
  458   459   460   461     9
  458   459   460   553     9
  459   460   461   462     9
  459   460   461   560     9
  553   460   461   560     9
  459   460   553   552     9
  459   460   553   554     9
  461   460   553   552     9
  461   460   553   554     9
  462   461   460   553     9
  460   461   462   463     9
  460   461   462   467     9
  460   461   560   559     9
  460   461   560   561     9
  462   461   560   559     9
  462   461   560   561     9
  463   462   461   560     9
  467   462   461   560     9
  461   462   463   464     9
  461   462   467   466     9
  461   462   467   468     9
  463   462   467   466     9
  463   462   467   468     9
  458   463   462   461     9
  458   463   462   467     9
  464   463   462   467     9
  458   463   464   465     9
  462   463   464   465     9
  365   464   463   458     9
  365   464   463   462     9
  365   464   465   372     9
  365   464   465   466     9
  463   464   465   466     9
  372   465   464   463     9
  372   465   466   467     9
  372   465   466   471     9
  464   465   466   467     9
  464   465   466   471     9
  465   466   467   468     9
  465   466   471   470     9
  465   466   471   472     9
  467   466   471   470     9
  467   466   471   472     9
  462   467   466   465     9
  462   467   466   471     9
  468   467   466   471     9
  462   467   468   469     9
  462   467   468   561     9
  466   467   468   469     9
  466   467   468   561     9
  467   468   469   470     9
  467   468   469   568     9
  561   468   469   568     9
  467   468   561   560     9
  467   468   561   562     9
  469   468   561   560     9
  469   468   561   562     9
  470   469   468   561     9
  468   469   470   471     9
  468   469   470   475     9
  468   469   568   567     9
  468   469   568   569     9
  470   469   568   567     9
  470   469   568   569     9
  471   470   469   568     9
  475   470   469   568     9
  469   470   471   472     9
  469   470   475   474     9
  469   470   475   476     9
  471   470   475   474     9
  471   470   475   476     9
  466   471   470   469     9
  466   471   470   475     9
  472   471   470   475     9
  466   471   472   473     9
  470   471   472   473     9
  373   472   471   466     9
  373   472   471   470     9
  373   472   473   380     9
  373   472   473   474     9
  471   472   473   474     9
  380   473   472   471     9
  380   473   474   475     9
  380   473   474   479     9
  472   473   474   475     9
  472   473   474   479     9
  473   474   475   476     9
  473   474   479   478     9
  473   474   479   480     9
  475   474   479   478     9
  475   474   479   480     9
  470   475   474   473     9
  470   475   474   479     9
  476   475   474   479     9
  470   475   476   477     9
  470   475   476   569     9
  474   475   476   477     9
  474   475   476   569     9
  475   476   477   478     9
  475   476   477   576     9
  569   476   477   576     9
  475   476   569   568     9
  475   476   569   570     9
  477   476   569   568     9
  477   476   569   570     9
  478   477   476   569     9
  476   477   478   479     9
  476   477   576   481     9
  476   477   576   575     9
  478   477   576   481     9
  478   477   576   575     9
  387   478   477   476     9
  387   478   477   576     9
  479   478   477   576     9
  387   478   479   474     9
  387   478   479   480     9
  477   478   479   480     9
  474   479   478   477     9
  381   480   385   386     9
  381   480   479   474     9
  381   480   479   478     9
  385   480   479   474     9
  385   480   479   478     9
  388   481   482   483     9
  388   481   482   487     9
  388   481   576   477     9
  388   481   576   575     9
  482   481   576   575     9
  483   482   481   576     9
  487   482   481   576     9
  481   482   483   484     9
  481   482   483   574     9
  487   482   483   574     9
  481   482   487   486     9
  481   482   487   488     9
  483   482   487   486     9
  483   482   487   488     9
  484   483   482   487     9
  482   483   484   485     9
  482   483   484   577     9
  574   483   484   577     9
  482   483   574   573     9
  482   483   574   575     9
  484   483   574   573     9
  484   483   574   575     9
  485   484   483   574     9
  483   484   485   486     9
  483   484   485   584     9
  577   484   485   584     9
  483   484   577   578     9
  483   484   577   672     9
  485   484   577   578     9
  485   484   577   672     9
  486   485   484   577     9
  484   485   486   487     9
  484   485   486   491     9
  484   485   584   583     9
  484   485   584   585     9
  486   485   584   583     9
  486   485   584   585     9
  487   486   485   584     9
  491   486   485   584     9
  485   486   487   488     9
  485   486   491   490     9
  485   486   491   492     9
  487   486   491   490     9
  487   486   491   492     9
  482   487   486   485     9
  482   487   486   491     9
  488   487   486   491     9
  482   487   488   489     9
  486   487   488   489     9
  389   488   487   482     9
  389   488   487   486     9
  389   488   489   396     9
  389   488   489   490     9
  487   488   489   490     9
  396   489   488   487     9
  396   489   490   491     9
  396   489   490   495     9
  488   489   490   491     9
  488   489   490   495     9
  489   490   491   492     9
  489   490   495   494     9
  489   490   495   496     9
  491   490   495   494     9
  491   490   495   496     9
  486   491   490   489     9
  486   491   490   495     9
  492   491   490   495     9
  486   491   492   493     9
  486   491   492   585     9
  490   491   492   493     9
  490   491   492   585     9
  491   492   493   494     9
  491   492   493   592     9
  585   492   493   592     9
  491   492   585   584     9
  491   492   585   586     9
  493   492   585   584     9
  493   492   585   586     9
  494   493   492   585     9
  492   493   494   495     9
  492   493   494   499     9
  492   493   592   591     9
  492   493   592   593     9
  494   493   592   591     9
  494   493   592   593     9
  495   494   493   592     9
  499   494   493   592     9
  493   494   495   496     9
  493   494   499   498     9
  493   494   499   500     9
  495   494   499   498     9
  495   494   499   500     9
  490   495   494   493     9
  490   495   494   499     9
  496   495   494   499     9
  490   495   496   497     9
  494   495   496   497     9
  397   496   495   490     9
  397   496   495   494     9
  397   496   497   404     9
  397   496   497   498     9
  495   496   497   498     9
  404   497   496   495     9
  404   497   498   499     9
  404   497   498   503     9
  496   497   498   499     9
  496   497   498   503     9
  497   498   499   500     9
  497   498   503   502     9
  497   498   503   504     9
  499   498   503   502     9
  499   498   503   504     9
  494   499   498   497     9
  494   499   498   503     9
  500   499   498   503     9
  494   499   500   501     9
  494   499   500   593     9
  498   499   500   501     9
  498   499   500   593     9
  499   500   501   502     9
  499   500   501   600     9
  593   500   501   600     9
  499   500   593   592     9
  499   500   593   594     9
  501   500   593   592     9
  501   500   593   594     9
  502   501   500   593     9
  500   501   502   503     9
  500   501   502   507     9
  500   501   600   599     9
  500   501   600   601     9
  502   501   600   599     9
  502   501   600   601     9
  503   502   501   600     9
  507   502   501   600     9
  501   502   503   504     9
  501   502   507   506     9
  501   502   507   508     9
  503   502   507   506     9
  503   502   507   508     9
  498   503   502   501     9
  498   503   502   507     9
  504   503   502   507     9
  498   503   504   505     9
  502   503   504   505     9
  405   504   503   498     9
  405   504   503   502     9
  405   504   505   412     9
  405   504   505   506     9
  503   504   505   506     9
  412   505   504   503     9
  412   505   506   507     9
  412   505   506   511     9
  504   505   506   507     9
  504   505   506   511     9
  505   506   507   508     9
  505   506   511   510     9
  505   506   511   512     9
  507   506   511   510     9
  507   506   511   512     9
  502   507   506   505     9
  502   507   506   511     9
  508   507   506   511     9
  502   507   508   509     9
  502   507   508   601     9
  506   507   508   509     9
  506   507   508   601     9
  507   508   509   510     9
  507   508   509   608     9
  601   508   509   608     9
  507   508   601   600     9
  507   508   601   602     9
  509   508   601   600     9
  509   508   601   602     9
  510   509   508   601     9
  508   509   510   511     9
  508   509   510   515     9
  508   509   608   607     9
  508   509   608   609     9
  510   509   608   607     9
  510   509   608   609     9
  511   510   509   608     9
  515   510   509   608     9
  509   510   511   512     9
  509   510   515   514     9
  509   510   515   516     9
  511   510   515   514     9
  511   510   515   516     9
  506   511   510   509     9
  506   511   510   515     9
  512   511   510   515     9
  506   511   512   513     9
  510   511   512   513     9
  413   512   511   506     9
  413   512   511   510     9
  413   512   513   420     9
  413   512   513   514     9
  511   512   513   514     9
  420   513   512   511     9
  420   513   514   515     9
  420   513   514   519     9
  512   513   514   515     9
  512   513   514   519     9
  513   514   515   516     9
  513   514   519   518     9
  513   514   519   520     9
  515   514   519   518     9
  515   514   519   520     9
  510   515   514   513     9
  510   515   514   519     9
  516   515   514   519     9
  510   515   516   517     9
  510   515   516   609     9
  514   515   516   517     9
  514   515   516   609     9
  515   516   517   518     9
  515   516   517   616     9
  609   516   517   616     9
  515   516   609   608     9
  515   516   609   610     9
  517   516   609   608     9
  517   516   609   610     9
  518   517   516   609     9
  516   517   518   519     9
  516   517   518   523     9
  516   517   616   615     9
  516   517   616   617     9
  518   517   616   615     9
  518   517   616   617     9
  519   518   517   616     9
  523   518   517   616     9
  517   518   519   520     9
  517   518   523   522     9
  517   518   523   524     9
  519   518   523   522     9
  519   518   523   524     9
  514   519   518   517     9
  514   519   518   523     9
  520   519   518   523     9
  514   519   520   521     9
  518   519   520   521     9
  421   520   519   514     9
  421   520   519   518     9
  421   520   521   428     9
  421   520   521   522     9
  519   520   521   522     9
  428   521   520   519     9
  428   521   522   523     9
  428   521   522   527     9
  520   521   522   523     9
  520   521   522   527     9
  521   522   523   524     9
  521   522   527   526     9
  521   522   527   528     9
  523   522   527   526     9
  523   522   527   528     9
  518   523   522   521     9
  518   523   522   527     9
  524   523   522   527     9
  518   523   524   525     9
  518   523   524   617     9
  522   523   524   525     9
  522   523   524   617     9
  523   524   525   526     9
  523   524   525   624     9
  617   524   525   624     9
  523   524   617   616     9
  523   524   617   618     9
  525   524   617   616     9
  525   524   617   618     9
  526   525   524   617     9
  524   525   526   527     9
  524   525   526   531     9
  524   525   624   623     9
  524   525   624   625     9
  526   525   624   623     9
  526   525   624   625     9
  527   526   525   624     9
  531   526   525   624     9
  525   526   527   528     9
  525   526   531   530     9
  525   526   531   532     9
  527   526   531   530     9
  527   526   531   532     9
  522   527   526   525     9
  522   527   526   531     9
  528   527   526   531     9
  522   527   528   529     9
  526   527   528   529     9
  429   528   527   522     9
  429   528   527   526     9
  429   528   529   436     9
  429   528   529   530     9
  527   528   529   530     9
  436   529   528   527     9
  436   529   530   531     9
  436   529   530   535     9
  528   529   530   531     9
  528   529   530   535     9
  529   530   531   532     9
  529   530   535   534     9
  529   530   535   536     9
  531   530   535   534     9
  531   530   535   536     9
  526   531   530   529     9
  526   531   530   535     9
  532   531   530   535     9
  526   531   532   533     9
  526   531   532   625     9
  530   531   532   533     9
  530   531   532   625     9
  531   532   533   534     9
  531   532   533   632     9
  625   532   533   632     9
  531   532   625   624     9
  531   532   625   626     9
  533   532   625   624     9
  533   532   625   626     9
  534   533   532   625     9
  532   533   534   535     9
  532   533   534   539     9
  532   533   632   631     9
  532   533   632   633     9
  534   533   632   631     9
  534   533   632   633     9
  535   534   533   632     9
  539   534   533   632     9
  533   534   535   536     9
  533   534   539   538     9
  533   534   539   540     9
  535   534   539   538     9
  535   534   539   540     9
  530   535   534   533     9
  530   535   534   539     9
  536   535   534   539     9
  530   535   536   537     9
  534   535   536   537     9
  437   536   535   530     9
  437   536   535   534     9
  437   536   537   444     9
  437   536   537   538     9
  535   536   537   538     9
  444   537   536   535     9
  444   537   538   539     9
  444   537   538   543     9
  536   537   538   539     9
  536   537   538   543     9
  537   538   539   540     9
  537   538   543   542     9
  537   538   543   544     9
  539   538   543   542     9
  539   538   543   544     9
  534   539   538   537     9
  534   539   538   543     9
  540   539   538   543     9
  534   539   540   541     9
  534   539   540   633     9
  538   539   540   541     9
  538   539   540   633     9
  539   540   541   542     9
  539   540   541   640     9
  633   540   541   640     9
  539   540   633   632     9
  539   540   633   634     9
  541   540   633   632     9
  541   540   633   634     9
  542   541   540   633     9
  540   541   542   543     9
  540   541   542   547     9
  540   541   640   639     9
  540   541   640   641     9
  542   541   640   639     9
  542   541   640   641     9
  543   542   541   640     9
  547   542   541   640     9
  541   542   543   544     9
  541   542   547   546     9
  541   542   547   548     9
  543   542   547   546     9
  543   542   547   548     9
  538   543   542   541     9
  538   543   542   547     9
  544   543   542   547     9
  538   543   544   545     9
  542   543   544   545     9
  445   544   543   538     9
  445   544   543   542     9
  445   544   545   452     9
  445   544   545   546     9
  543   544   545   546     9
  452   545   544   543     9
  452   545   546   547     9
  452   545   546   551     9
  544   545   546   547     9
  544   545   546   551     9
  545   546   547   548     9
  545   546   551   550     9
  545   546   551   552     9
  547   546   551   550     9
  547   546   551   552     9
  542   547   546   545     9
  542   547   546   551     9
  548   547   546   551     9
  542   547   548   549     9
  542   547   548   641     9
  546   547   548   549     9
  546   547   548   641     9
  547   548   549   550     9
  547   548   549   648     9
  641   548   549   648     9
  547   548   641   640     9
  547   548   641   642     9
  549   548   641   640     9
  549   548   641   642     9
  550   549   548   641     9
  548   549   550   551     9
  548   549   550   555     9
  548   549   648   647     9
  548   549   648   649     9
  550   549   648   647     9
  550   549   648   649     9
  551   550   549   648     9
  555   550   549   648     9
  549   550   551   552     9
  549   550   555   554     9
  549   550   555   556     9
  551   550   555   554     9
  551   550   555   556     9
  546   551   550   549     9
  546   551   550   555     9
  552   551   550   555     9
  546   551   552   553     9
  550   551   552   553     9
  453   552   551   546     9
  453   552   551   550     9
  453   552   553   460     9
  453   552   553   554     9
  551   552   553   554     9
  460   553   552   551     9
  460   553   554   555     9
  460   553   554   559     9
  552   553   554   555     9
  552   553   554   559     9
  553   554   555   556     9
  553   554   559   558     9
  553   554   559   560     9
  555   554   559   558     9
  555   554   559   560     9
  550   555   554   553     9
  550   555   554   559     9
  556   555   554   559     9
  550   555   556   557     9
  550   555   556   649     9
  554   555   556   557     9
  554   555   556   649     9
  555   556   557   558     9
  555   556   557   656     9
  649   556   557   656     9
  555   556   649   648     9
  555   556   649   650     9
  557   556   649   648     9
  557   556   649   650     9
  558   557   556   649     9
  556   557   558   559     9
  556   557   558   563     9
  556   557   656   655     9
  556   557   656   657     9
  558   557   656   655     9
  558   557   656   657     9
  559   558   557   656     9
  563   558   557   656     9
  557   558   559   560     9
  557   558   563   562     9
  557   558   563   564     9
  559   558   563   562     9
  559   558   563   564     9
  554   559   558   557     9
  554   559   558   563     9
  560   559   558   563     9
  554   559   560   561     9
  558   559   560   561     9
  461   560   559   554     9
  461   560   559   558     9
  461   560   561   468     9
  461   560   561   562     9
  559   560   561   562     9
  468   561   560   559     9
  468   561   562   563     9
  468   561   562   567     9
  560   561   562   563     9
  560   561   562   567     9
  561   562   563   564     9
  561   562   567   566     9
  561   562   567   568     9
  563   562   567   566     9
  563   562   567   568     9
  558   563   562   561     9
  558   563   562   567     9
  564   563   562   567     9
  558   563   564   565     9
  558   563   564   657     9
  562   563   564   565     9
  562   563   564   657     9
  563   564   565   566     9
  563   564   565   664     9
  657   564   565   664     9
  563   564   657   656     9
  563   564   657   658     9
  565   564   657   656     9
  565   564   657   658     9
  566   565   564   657     9
  564   565   566   567     9
  564   565   566   571     9
  564   565   664   663     9
  564   565   664   665     9
  566   565   664   663     9
  566   565   664   665     9
  567   566   565   664     9
  571   566   565   664     9
  565   566   567   568     9
  565   566   571   570     9
  565   566   571   572     9
  567   566   571   570     9
  567   566   571   572     9
  562   567   566   565     9
  562   567   566   571     9
  568   567   566   571     9
  562   567   568   569     9
  566   567   568   569     9
  469   568   567   562     9
  469   568   567   566     9
  469   568   569   476     9
  469   568   569   570     9
  567   568   569   570     9
  476   569   568   567     9
  476   569   570   571     9
  476   569   570   575     9
  568   569   570   571     9
  568   569   570   575     9
  569   570   571   572     9
  569   570   575   574     9
  569   570   575   576     9
  571   570   575   574     9
  571   570   575   576     9
  566   571   570   569     9
  566   571   570   575     9
  572   571   570   575     9
  566   571   572   573     9
  566   571   572   665     9
  570   571   572   573     9
  570   571   572   665     9
  571   572   573   574     9
  571   572   573   672     9
  665   572   573   672     9
  571   572   665   664     9
  571   572   665   666     9
  573   572   665   664     9
  573   572   665   666     9
  574   573   572   665     9
  572   573   574   575     9
  572   573   672   577     9
  572   573   672   671     9
  574   573   672   577     9
  574   573   672   671     9
  483   574   573   572     9
  483   574   573   672     9
  575   574   573   672     9
  483   574   575   570     9
  483   574   575   576     9
  573   574   575   576     9
  570   575   574   573     9
  477   576   481   482     9
  477   576   575   570     9
  477   576   575   574     9
  481   576   575   570     9
  481   576   575   574     9
  484   577   578   579     9
  484   577   578   583     9
  484   577   672   573     9
  484   577   672   671     9
  578   577   672   671     9
  579   578   577   672     9
  583   578   577   672     9
  577   578   579   580     9
  577   578   579   670     9
  583   578   579   670     9
  577   578   583   582     9
  577   578   583   584     9
  579   578   583   582     9
  579   578   583   584     9
  580   579   578   583     9
  578   579   580   581     9
  578   579   580   673     9
  670   579   580   673     9
  578   579   670   669     9
  578   579   670   671     9
  580   579   670   669     9
  580   579   670   671     9
  581   580   579   670     9
  579   580   581   582     9
  579   580   581   680     9
  673   580   581   680     9
  579   580   673   674     9
  579   580   673   768     9
  581   580   673   674     9
  581   580   673   768     9
  582   581   580   673     9
  580   581   582   583     9
  580   581   582   587     9
  580   581   680   679     9
  580   581   680   681     9
  582   581   680   679     9
  582   581   680   681     9
  583   582   581   680     9
  587   582   581   680     9
  581   582   583   584     9
  581   582   587   586     9
  581   582   587   588     9
  583   582   587   586     9
  583   582   587   588     9
  578   583   582   581     9
  578   583   582   587     9
  584   583   582   587     9
  578   583   584   585     9
  582   583   584   585     9
  485   584   583   578     9
  485   584   583   582     9
  485   584   585   492     9
  485   584   585   586     9
  583   584   585   586     9
  492   585   584   583     9
  492   585   586   587     9
  492   585   586   591     9
  584   585   586   587     9
  584   585   586   591     9
  585   586   587   588     9
  585   586   591   590     9
  585   586   591   592     9
  587   586   591   590     9
  587   586   591   592     9
  582   587   586   585     9
  582   587   586   591     9
  588   587   586   591     9
  582   587   588   589     9
  582   587   588   681     9
  586   587   588   589     9
  586   587   588   681     9
  587   588   589   590     9
  587   588   589   688     9
  681   588   589   688     9
  587   588   681   680     9
  587   588   681   682     9
  589   588   681   680     9
  589   588   681   682     9
  590   589   588   681     9
  588   589   590   591     9
  588   589   590   595     9
  588   589   688   687     9
  588   589   688   689     9
  590   589   688   687     9
  590   589   688   689     9
  591   590   589   688     9
  595   590   589   688     9
  589   590   591   592     9
  589   590   595   594     9
  589   590   595   596     9
  591   590   595   594     9
  591   590   595   596     9
  586   591   590   589     9
  586   591   590   595     9
  592   591   590   595     9
  586   591   592   593     9
  590   591   592   593     9
  493   592   591   586     9
  493   592   591   590     9
  493   592   593   500     9
  493   592   593   594     9
  591   592   593   594     9
  500   593   592   591     9
  500   593   594   595     9
  500   593   594   599     9
  592   593   594   595     9
  592   593   594   599     9
  593   594   595   596     9
  593   594   599   598     9
  593   594   599   600     9
  595   594   599   598     9
  595   594   599   600     9
  590   595   594   593     9
  590   595   594   599     9
  596   595   594   599     9
  590   595   596   597     9
  590   595   596   689     9
  594   595   596   597     9
  594   595   596   689     9
  595   596   597   598     9
  595   596   597   696     9
  689   596   597   696     9
  595   596   689   688     9
  595   596   689   690     9
  597   596   689   688     9
  597   596   689   690     9
  598   597   596   689     9
  596   597   598   599     9
  596   597   598   603     9
  596   597   696   695     9
  596   597   696   697     9
  598   597   696   695     9
  598   597   696   697     9
  599   598   597   696     9
  603   598   597   696     9
  597   598   599   600     9
  597   598   603   602     9
  597   598   603   604     9
  599   598   603   602     9
  599   598   603   604     9
  594   599   598   597     9
  594   599   598   603     9
  600   599   598   603     9
  594   599   600   601     9
  598   599   600   601     9
  501   600   599   594     9
  501   600   599   598     9
  501   600   601   508     9
  501   600   601   602     9
  599   600   601   602     9
  508   601   600   599     9
  508   601   602   603     9
  508   601   602   607     9
  600   601   602   603     9
  600   601   602   607     9
  601   602   603   604     9
  601   602   607   606     9
  601   602   607   608     9
  603   602   607   606     9
  603   602   607   608     9
  598   603   602   601     9
  598   603   602   607     9
  604   603   602   607     9
  598   603   604   605     9
  598   603   604   697     9
  602   603   604   605     9
  602   603   604   697     9
  603   604   605   606     9
  603   604   605   704     9
  697   604   605   704     9
  603   604   697   696     9
  603   604   697   698     9
  605   604   697   696     9
  605   604   697   698     9
  606   605   604   697     9
  604   605   606   607     9
  604   605   606   611     9
  604   605   704   703     9
  604   605   704   705     9
  606   605   704   703     9
  606   605   704   705     9
  607   606   605   704     9
  611   606   605   704     9
  605   606   607   608     9
  605   606   611   610     9
  605   606   611   612     9
  607   606   611   610     9
  607   606   611   612     9
  602   607   606   605     9
  602   607   606   611     9
  608   607   606   611     9
  602   607   608   609     9
  606   607   608   609     9
  509   608   607   602     9
  509   608   607   606     9
  509   608   609   516     9
  509   608   609   610     9
  607   608   609   610     9
  516   609   608   607     9
  516   609   610   611     9
  516   609   610   615     9
  608   609   610   611     9
  608   609   610   615     9
  609   610   611   612     9
  609   610   615   614     9
  609   610   615   616     9
  611   610   615   614     9
  611   610   615   616     9
  606   611   610   609     9
  606   611   610   615     9
  612   611   610   615     9
  606   611   612   613     9
  606   611   612   705     9
  610   611   612   613     9
  610   611   612   705     9
  611   612   613   614     9
  611   612   613   712     9
  705   612   613   712     9
  611   612   705   704     9
  611   612   705   706     9
  613   612   705   704     9
  613   612   705   706     9
  614   613   612   705     9
  612   613   614   615     9
  612   613   614   619     9
  612   613   712   711     9
  612   613   712   713     9
  614   613   712   711     9
  614   613   712   713     9
  615   614   613   712     9
  619   614   613   712     9
  613   614   615   616     9
  613   614   619   618     9
  613   614   619   620     9
  615   614   619   618     9
  615   614   619   620     9
  610   615   614   613     9
  610   615   614   619     9
  616   615   614   619     9
  610   615   616   617     9
  614   615   616   617     9
  517   616   615   610     9
  517   616   615   614     9
  517   616   617   524     9
  517   616   617   618     9
  615   616   617   618     9
  524   617   616   615     9
  524   617   618   619     9
  524   617   618   623     9
  616   617   618   619     9
  616   617   618   623     9
  617   618   619   620     9
  617   618   623   622     9
  617   618   623   624     9
  619   618   623   622     9
  619   618   623   624     9
  614   619   618   617     9
  614   619   618   623     9
  620   619   618   623     9
  614   619   620   621     9
  614   619   620   713     9
  618   619   620   621     9
  618   619   620   713     9
  619   620   621   622     9
  619   620   621   720     9
  713   620   621   720     9
  619   620   713   712     9
  619   620   713   714     9
  621   620   713   712     9
  621   620   713   714     9
  622   621   620   713     9
  620   621   622   623     9
  620   621   622   627     9
  620   621   720   719     9
  620   621   720   721     9
  622   621   720   719     9
  622   621   720   721     9
  623   622   621   720     9
  627   622   621   720     9
  621   622   623   624     9
  621   622   627   626     9
  621   622   627   628     9
  623   622   627   626     9
  623   622   627   628     9
  618   623   622   621     9
  618   623   622   627     9
  624   623   622   627     9
  618   623   624   625     9
  622   623   624   625     9
  525   624   623   618     9
  525   624   623   622     9
  525   624   625   532     9
  525   624   625   626     9
  623   624   625   626     9
  532   625   624   623     9
  532   625   626   627     9
  532   625   626   631     9
  624   625   626   627     9
  624   625   626   631     9
  625   626   627   628     9
  625   626   631   630     9
  625   626   631   632     9
  627   626   631   630     9
  627   626   631   632     9
  622   627   626   625     9
  622   627   626   631     9
  628   627   626   631     9
  622   627   628   629     9
  622   627   628   721     9
  626   627   628   629     9
  626   627   628   721     9
  627   628   629   630     9
  627   628   629   728     9
  721   628   629   728     9
  627   628   721   720     9
  627   628   721   722     9
  629   628   721   720     9
  629   628   721   722     9
  630   629   628   721     9
  628   629   630   631     9
  628   629   630   635     9
  628   629   728   727     9
  628   629   728   729     9
  630   629   728   727     9
  630   629   728   729     9
  631   630   629   728     9
  635   630   629   728     9
  629   630   631   632     9
  629   630   635   634     9
  629   630   635   636     9
  631   630   635   634     9
  631   630   635   636     9
  626   631   630   629     9
  626   631   630   635     9
  632   631   630   635     9
  626   631   632   633     9
  630   631   632   633     9
  533   632   631   626     9
  533   632   631   630     9
  533   632   633   540     9
  533   632   633   634     9
  631   632   633   634     9
  540   633   632   631     9
  540   633   634   635     9
  540   633   634   639     9
  632   633   634   635     9
  632   633   634   639     9
  633   634   635   636     9
  633   634   639   638     9
  633   634   639   640     9
  635   634   639   638     9
  635   634   639   640     9
  630   635   634   633     9
  630   635   634   639     9
  636   635   634   639     9
  630   635   636   637     9
  630   635   636   729     9
  634   635   636   637     9
  634   635   636   729     9
  635   636   637   638     9
  635   636   637   736     9
  729   636   637   736     9
  635   636   729   728     9
  635   636   729   730     9
  637   636   729   728     9
  637   636   729   730     9
  638   637   636   729     9
  636   637   638   639     9
  636   637   638   643     9
  636   637   736   735     9
  636   637   736   737     9
  638   637   736   735     9
  638   637   736   737     9
  639   638   637   736     9
  643   638   637   736     9
  637   638   639   640     9
  637   638   643   642     9
  637   638   643   644     9
  639   638   643   642     9
  639   638   643   644     9
  634   639   638   637     9
  634   639   638   643     9
  640   639   638   643     9
  634   639   640   641     9
  638   639   640   641     9
  541   640   639   634     9
  541   640   639   638     9
  541   640   641   548     9
  541   640   641   642     9
  639   640   641   642     9
  548   641   640   639     9
  548   641   642   643     9
  548   641   642   647     9
  640   641   642   643     9
  640   641   642   647     9
  641   642   643   644     9
  641   642   647   646     9
  641   642   647   648     9
  643   642   647   646     9
  643   642   647   648     9
  638   643   642   641     9
  638   643   642   647     9
  644   643   642   647     9
  638   643   644   645     9
  638   643   644   737     9
  642   643   644   645     9
  642   643   644   737     9
  643   644   645   646     9
  643   644   645   744     9
  737   644   645   744     9
  643   644   737   736     9
  643   644   737   738     9
  645   644   737   736     9
  645   644   737   738     9
  646   645   644   737     9
  644   645   646   647     9
  644   645   646   651     9
  644   645   744   743     9
  644   645   744   745     9
  646   645   744   743     9
  646   645   744   745     9
  647   646   645   744     9
  651   646   645   744     9
  645   646   647   648     9
  645   646   651   650     9
  645   646   651   652     9
  647   646   651   650     9
  647   646   651   652     9
  642   647   646   645     9
  642   647   646   651     9
  648   647   646   651     9
  642   647   648   649     9
  646   647   648   649     9
  549   648   647   642     9
  549   648   647   646     9
  549   648   649   556     9
  549   648   649   650     9
  647   648   649   650     9
  556   649   648   647     9
  556   649   650   651     9
  556   649   650   655     9
  648   649   650   651     9
  648   649   650   655     9
  649   650   651   652     9
  649   650   655   654     9
  649   650   655   656     9
  651   650   655   654     9
  651   650   655   656     9
  646   651   650   649     9
  646   651   650   655     9
  652   651   650   655     9
  646   651   652   653     9
  646   651   652   745     9
  650   651   652   653     9
  650   651   652   745     9
  651   652   653   654     9
  651   652   653   752     9
  745   652   653   752     9
  651   652   745   744     9
  651   652   745   746     9
  653   652   745   744     9
  653   652   745   746     9
  654   653   652   745     9
  652   653   654   655     9
  652   653   654   659     9
  652   653   752   751     9
  652   653   752   753     9
  654   653   752   751     9
  654   653   752   753     9
  655   654   653   752     9
  659   654   653   752     9
  653   654   655   656     9
  653   654   659   658     9
  653   654   659   660     9
  655   654   659   658     9
  655   654   659   660     9
  650   655   654   653     9
  650   655   654   659     9
  656   655   654   659     9
  650   655   656   657     9
  654   655   656   657     9
  557   656   655   650     9
  557   656   655   654     9
  557   656   657   564     9
  557   656   657   658     9
  655   656   657   658     9
  564   657   656   655     9
  564   657   658   659     9
  564   657   658   663     9
  656   657   658   659     9
  656   657   658   663     9
  657   658   659   660     9
  657   658   663   662     9
  657   658   663   664     9
  659   658   663   662     9
  659   658   663   664     9
  654   659   658   657     9
  654   659   658   663     9
  660   659   658   663     9
  654   659   660   661     9
  654   659   660   753     9
  658   659   660   661     9
  658   659   660   753     9
  659   660   661   662     9
  659   660   661   760     9
  753   660   661   760     9
  659   660   753   752     9
  659   660   753   754     9
  661   660   753   752     9
  661   660   753   754     9
  662   661   660   753     9
  660   661   662   663     9
  660   661   662   667     9
  660   661   760   759     9
  660   661   760   761     9
  662   661   760   759     9
  662   661   760   761     9
  663   662   661   760     9
  667   662   661   760     9
  661   662   663   664     9
  661   662   667   666     9
  661   662   667   668     9
  663   662   667   666     9
  663   662   667   668     9
  658   663   662   661     9
  658   663   662   667     9
  664   663   662   667     9
  658   663   664   665     9
  662   663   664   665     9
  565   664   663   658     9
  565   664   663   662     9
  565   664   665   572     9
  565   664   665   666     9
  663   664   665   666     9
  572   665   664   663     9
  572   665   666   667     9
  572   665   666   671     9
  664   665   666   667     9
  664   665   666   671     9
  665   666   667   668     9
  665   666   671   670     9
  665   666   671   672     9
  667   666   671   670     9
  667   666   671   672     9
  662   667   666   665     9
  662   667   666   671     9
  668   667   666   671     9
  662   667   668   669     9
  662   667   668   761     9
  666   667   668   669     9
  666   667   668   761     9
  667   668   669   670     9
  667   668   669   768     9
  761   668   669   768     9
  667   668   761   760     9
  667   668   761   762     9
  669   668   761   760     9
  669   668   761   762     9
  670   669   668   761     9
  668   669   670   671     9
  668   669   768   673     9
  668   669   768   767     9
  670   669   768   673     9
  670   669   768   767     9
  579   670   669   668     9
  579   670   669   768     9
  671   670   669   768     9
  579   670   671   666     9
  579   670   671   672     9
  669   670   671   672     9
  666   671   670   669     9
  573   672   577   578     9
  573   672   671   666     9
  573   672   671   670     9
  577   672   671   666     9
  577   672   671   670     9
  580   673   674   675     9
  580   673   674   679     9
  580   673   768   669     9
  580   673   768   767     9
  674   673   768   767     9
  675   674   673   768     9
  679   674   673   768     9
  673   674   675   676     9
  673   674   675   766     9
  679   674   675   766     9
  673   674   679   678     9
  673   674   679   680     9
  675   674   679   678     9
  675   674   679   680     9
  676   675   674   679     9
  674   675   676   677     9
  674   675   676   769     9
  766   675   676   769     9
  674   675   766   765     9
  674   675   766   767     9
  676   675   766   765     9
  676   675   766   767     9
  677   676   675   766     9
  675   676   677   678     9
  675   676   677   776     9
  769   676   677   776     9
  675   676   769   770     9
  675   676   769   864     9
  677   676   769   770     9
  677   676   769   864     9
  678   677   676   769     9
  676   677   678   679     9
  676   677   678   683     9
  676   677   776   775     9
  676   677   776   777     9
  678   677   776   775     9
  678   677   776   777     9
  679   678   677   776     9
  683   678   677   776     9
  677   678   679   680     9
  677   678   683   682     9
  677   678   683   684     9
  679   678   683   682     9
  679   678   683   684     9
  674   679   678   677     9
  674   679   678   683     9
  680   679   678   683     9
  674   679   680   681     9
  678   679   680   681     9
  581   680   679   674     9
  581   680   679   678     9
  581   680   681   588     9
  581   680   681   682     9
  679   680   681   682     9
  588   681   680   679     9
  588   681   682   683     9
  588   681   682   687     9
  680   681   682   683     9
  680   681   682   687     9
  681   682   683   684     9
  681   682   687   686     9
  681   682   687   688     9
  683   682   687   686     9
  683   682   687   688     9
  678   683   682   681     9
  678   683   682   687     9
  684   683   682   687     9
  678   683   684   685     9
  678   683   684   777     9
  682   683   684   685     9
  682   683   684   777     9
  683   684   685   686     9
  683   684   685   784     9
  777   684   685   784     9
  683   684   777   776     9
  683   684   777   778     9
  685   684   777   776     9
  685   684   777   778     9
  686   685   684   777     9
  684   685   686   687     9
  684   685   686   691     9
  684   685   784   783     9
  684   685   784   785     9
  686   685   784   783     9
  686   685   784   785     9
  687   686   685   784     9
  691   686   685   784     9
  685   686   687   688     9
  685   686   691   690     9
  685   686   691   692     9
  687   686   691   690     9
  687   686   691   692     9
  682   687   686   685     9
  682   687   686   691     9
  688   687   686   691     9
  682   687   688   689     9
  686   687   688   689     9
  589   688   687   682     9
  589   688   687   686     9
  589   688   689   596     9
  589   688   689   690     9
  687   688   689   690     9
  596   689   688   687     9
  596   689   690   691     9
  596   689   690   695     9
  688   689   690   691     9
  688   689   690   695     9
  689   690   691   692     9
  689   690   695   694     9
  689   690   695   696     9
  691   690   695   694     9
  691   690   695   696     9
  686   691   690   689     9
  686   691   690   695     9
  692   691   690   695     9
  686   691   692   693     9
  686   691   692   785     9
  690   691   692   693     9
  690   691   692   785     9
  691   692   693   694     9
  691   692   693   792     9
  785   692   693   792     9
  691   692   785   784     9
  691   692   785   786     9
  693   692   785   784     9
  693   692   785   786     9
  694   693   692   785     9
  692   693   694   695     9
  692   693   694   699     9
  692   693   792   791     9
  692   693   792   793     9
  694   693   792   791     9
  694   693   792   793     9
  695   694   693   792     9
  699   694   693   792     9
  693   694   695   696     9
  693   694   699   698     9
  693   694   699   700     9
  695   694   699   698     9
  695   694   699   700     9
  690   695   694   693     9
  690   695   694   699     9
  696   695   694   699     9
  690   695   696   697     9
  694   695   696   697     9
  597   696   695   690     9
  597   696   695   694     9
  597   696   697   604     9
  597   696   697   698     9
  695   696   697   698     9
  604   697   696   695     9
  604   697   698   699     9
  604   697   698   703     9
  696   697   698   699     9
  696   697   698   703     9
  697   698   699   700     9
  697   698   703   702     9
  697   698   703   704     9
  699   698   703   702     9
  699   698   703   704     9
  694   699   698   697     9
  694   699   698   703     9
  700   699   698   703     9
  694   699   700   701     9
  694   699   700   793     9
  698   699   700   701     9
  698   699   700   793     9
  699   700   701   702     9
  699   700   701   800     9
  793   700   701   800     9
  699   700   793   792     9
  699   700   793   794     9
  701   700   793   792     9
  701   700   793   794     9
  702   701   700   793     9
  700   701   702   703     9
  700   701   702   707     9
  700   701   800   799     9
  700   701   800   801     9
  702   701   800   799     9
  702   701   800   801     9
  703   702   701   800     9
  707   702   701   800     9
  701   702   703   704     9
  701   702   707   706     9
  701   702   707   708     9
  703   702   707   706     9
  703   702   707   708     9
  698   703   702   701     9
  698   703   702   707     9
  704   703   702   707     9
  698   703   704   705     9
  702   703   704   705     9
  605   704   703   698     9
  605   704   703   702     9
  605   704   705   612     9
  605   704   705   706     9
  703   704   705   706     9
  612   705   704   703     9
  612   705   706   707     9
  612   705   706   711     9
  704   705   706   707     9
  704   705   706   711     9
  705   706   707   708     9
  705   706   711   710     9
  705   706   711   712     9
  707   706   711   710     9
  707   706   711   712     9
  702   707   706   705     9
  702   707   706   711     9
  708   707   706   711     9
  702   707   708   709     9
  702   707   708   801     9
  706   707   708   709     9
  706   707   708   801     9
  707   708   709   710     9
  707   708   709   808     9
  801   708   709   808     9
  707   708   801   800     9
  707   708   801   802     9
  709   708   801   800     9
  709   708   801   802     9
  710   709   708   801     9
  708   709   710   711     9
  708   709   710   715     9
  708   709   808   807     9
  708   709   808   809     9
  710   709   808   807     9
  710   709   808   809     9
  711   710   709   808     9
  715   710   709   808     9
  709   710   711   712     9
  709   710   715   714     9
  709   710   715   716     9
  711   710   715   714     9
  711   710   715   716     9
  706   711   710   709     9
  706   711   710   715     9
  712   711   710   715     9
  706   711   712   713     9
  710   711   712   713     9
  613   712   711   706     9
  613   712   711   710     9
  613   712   713   620     9
  613   712   713   714     9
  711   712   713   714     9
  620   713   712   711     9
  620   713   714   715     9
  620   713   714   719     9
  712   713   714   715     9
  712   713   714   719     9
  713   714   715   716     9
  713   714   719   718     9
  713   714   719   720     9
  715   714   719   718     9
  715   714   719   720     9
  710   715   714   713     9
  710   715   714   719     9
  716   715   714   719     9
  710   715   716   717     9
  710   715   716   809     9
  714   715   716   717     9
  714   715   716   809     9
  715   716   717   718     9
  715   716   717   816     9
  809   716   717   816     9
  715   716   809   808     9
  715   716   809   810     9
  717   716   809   808     9
  717   716   809   810     9
  718   717   716   809     9
  716   717   718   719     9
  716   717   718   723     9
  716   717   816   815     9
  716   717   816   817     9
  718   717   816   815     9
  718   717   816   817     9
  719   718   717   816     9
  723   718   717   816     9
  717   718   719   720     9
  717   718   723   722     9
  717   718   723   724     9
  719   718   723   722     9
  719   718   723   724     9
  714   719   718   717     9
  714   719   718   723     9
  720   719   718   723     9
  714   719   720   721     9
  718   719   720   721     9
  621   720   719   714     9
  621   720   719   718     9
  621   720   721   628     9
  621   720   721   722     9
  719   720   721   722     9
  628   721   720   719     9
  628   721   722   723     9
  628   721   722   727     9
  720   721   722   723     9
  720   721   722   727     9
  721   722   723   724     9
  721   722   727   726     9
  721   722   727   728     9
  723   722   727   726     9
  723   722   727   728     9
  718   723   722   721     9
  718   723   722   727     9
  724   723   722   727     9
  718   723   724   725     9
  718   723   724   817     9
  722   723   724   725     9
  722   723   724   817     9
  723   724   725   726     9
  723   724   725   824     9
  817   724   725   824     9
  723   724   817   816     9
  723   724   817   818     9
  725   724   817   816     9
  725   724   817   818     9
  726   725   724   817     9
  724   725   726   727     9
  724   725   726   731     9
  724   725   824   823     9
  724   725   824   825     9
  726   725   824   823     9
  726   725   824   825     9
  727   726   725   824     9
  731   726   725   824     9
  725   726   727   728     9
  725   726   731   730     9
  725   726   731   732     9
  727   726   731   730     9
  727   726   731   732     9
  722   727   726   725     9
  722   727   726   731     9
  728   727   726   731     9
  722   727   728   729     9
  726   727   728   729     9
  629   728   727   722     9
  629   728   727   726     9
  629   728   729   636     9
  629   728   729   730     9
  727   728   729   730     9
  636   729   728   727     9
  636   729   730   731     9
  636   729   730   735     9
  728   729   730   731     9
  728   729   730   735     9
  729   730   731   732     9
  729   730   735   734     9
  729   730   735   736     9
  731   730   735   734     9
  731   730   735   736     9
  726   731   730   729     9
  726   731   730   735     9
  732   731   730   735     9
  726   731   732   733     9
  726   731   732   825     9
  730   731   732   733     9
  730   731   732   825     9
  731   732   733   734     9
  731   732   733   832     9
  825   732   733   832     9
  731   732   825   824     9
  731   732   825   826     9
  733   732   825   824     9
  733   732   825   826     9
  734   733   732   825     9
  732   733   734   735     9
  732   733   734   739     9
  732   733   832   831     9
  732   733   832   833     9
  734   733   832   831     9
  734   733   832   833     9
  735   734   733   832     9
  739   734   733   832     9
  733   734   735   736     9
  733   734   739   738     9
  733   734   739   740     9
  735   734   739   738     9
  735   734   739   740     9
  730   735   734   733     9
  730   735   734   739     9
  736   735   734   739     9
  730   735   736   737     9
  734   735   736   737     9
  637   736   735   730     9
  637   736   735   734     9
  637   736   737   644     9
  637   736   737   738     9
  735   736   737   738     9
  644   737   736   735     9
  644   737   738   739     9
  644   737   738   743     9
  736   737   738   739     9
  736   737   738   743     9
  737   738   739   740     9
  737   738   743   742     9
  737   738   743   744     9
  739   738   743   742     9
  739   738   743   744     9
  734   739   738   737     9
  734   739   738   743     9
  740   739   738   743     9
  734   739   740   741     9
  734   739   740   833     9
  738   739   740   741     9
  738   739   740   833     9
  739   740   741   742     9
  739   740   741   840     9
  833   740   741   840     9
  739   740   833   832     9
  739   740   833   834     9
  741   740   833   832     9
  741   740   833   834     9
  742   741   740   833     9
  740   741   742   743     9
  740   741   742   747     9
  740   741   840   839     9
  740   741   840   841     9
  742   741   840   839     9
  742   741   840   841     9
  743   742   741   840     9
  747   742   741   840     9
  741   742   743   744     9
  741   742   747   746     9
  741   742   747   748     9
  743   742   747   746     9
  743   742   747   748     9
  738   743   742   741     9
  738   743   742   747     9
  744   743   742   747     9
  738   743   744   745     9
  742   743   744   745     9
  645   744   743   738     9
  645   744   743   742     9
  645   744   745   652     9
  645   744   745   746     9
  743   744   745   746     9
  652   745   744   743     9
  652   745   746   747     9
  652   745   746   751     9
  744   745   746   747     9
  744   745   746   751     9
  745   746   747   748     9
  745   746   751   750     9
  745   746   751   752     9
  747   746   751   750     9
  747   746   751   752     9
  742   747   746   745     9
  742   747   746   751     9
  748   747   746   751     9
  742   747   748   749     9
  742   747   748   841     9
  746   747   748   749     9
  746   747   748   841     9
  747   748   749   750     9
  747   748   749   848     9
  841   748   749   848     9
  747   748   841   840     9
  747   748   841   842     9
  749   748   841   840     9
  749   748   841   842     9
  750   749   748   841     9
  748   749   750   751     9
  748   749   750   755     9
  748   749   848   847     9
  748   749   848   849     9
  750   749   848   847     9
  750   749   848   849     9
  751   750   749   848     9
  755   750   749   848     9
  749   750   751   752     9
  749   750   755   754     9
  749   750   755   756     9
  751   750   755   754     9
  751   750   755   756     9
  746   751   750   749     9
  746   751   750   755     9
  752   751   750   755     9
  746   751   752   753     9
  750   751   752   753     9
  653   752   751   746     9
  653   752   751   750     9
  653   752   753   660     9
  653   752   753   754     9
  751   752   753   754     9
  660   753   752   751     9
  660   753   754   755     9
  660   753   754   759     9
  752   753   754   755     9
  752   753   754   759     9
  753   754   755   756     9
  753   754   759   758     9
  753   754   759   760     9
  755   754   759   758     9
  755   754   759   760     9
  750   755   754   753     9
  750   755   754   759     9
  756   755   754   759     9
  750   755   756   757     9
  750   755   756   849     9
  754   755   756   757     9
  754   755   756   849     9
  755   756   757   758     9
  755   756   757   856     9
  849   756   757   856     9
  755   756   849   848     9
  755   756   849   850     9
  757   756   849   848     9
  757   756   849   850     9
  758   757   756   849     9
  756   757   758   759     9
  756   757   758   763     9
  756   757   856   855     9
  756   757   856   857     9
  758   757   856   855     9
  758   757   856   857     9
  759   758   757   856     9
  763   758   757   856     9
  757   758   759   760     9
  757   758   763   762     9
  757   758   763   764     9
  759   758   763   762     9
  759   758   763   764     9
  754   759   758   757     9
  754   759   758   763     9
  760   759   758   763     9
  754   759   760   761     9
  758   759   760   761     9
  661   760   759   754     9
  661   760   759   758     9
  661   760   761   668     9
  661   760   761   762     9
  759   760   761   762     9
  668   761   760   759     9
  668   761   762   763     9
  668   761   762   767     9
  760   761   762   763     9
  760   761   762   767     9
  761   762   763   764     9
  761   762   767   766     9
  761   762   767   768     9
  763   762   767   766     9
  763   762   767   768     9
  758   763   762   761     9
  758   763   762   767     9
  764   763   762   767     9
  758   763   764   765     9
  758   763   764   857     9
  762   763   764   765     9
  762   763   764   857     9
  763   764   765   766     9
  763   764   765   864     9
  857   764   765   864     9
  763   764   857   856     9
  763   764   857   858     9
  765   764   857   856     9
  765   764   857   858     9
  766   765   764   857     9
  764   765   766   767     9
  764   765   864   769     9
  764   765   864   863     9
  766   765   864   769     9
  766   765   864   863     9
  675   766   765   764     9
  675   766   765   864     9
  767   766   765   864     9
  675   766   767   762     9
  675   766   767   768     9
  765   766   767   768     9
  762   767   766   765     9
  669   768   673   674     9
  669   768   767   762     9
  669   768   767   766     9
  673   768   767   762     9
  673   768   767   766     9
  676   769   770   771     9
  676   769   770   775     9
  676   769   864   765     9
  676   769   864   863     9
  770   769   864   863     9
  771   770   769   864     9
  775   770   769   864     9
  769   770   771   772     9
  769   770   771   862     9
  775   770   771   862     9
  769   770   775   774     9
  769   770   775   776     9
  771   770   775   774     9
  771   770   775   776     9
  772   771   770   775     9
  770   771   772   773     9
  770   771   772   865     9
  862   771   772   865     9
  770   771   862   861     9
  770   771   862   863     9
  772   771   862   861     9
  772   771   862   863     9
  773   772   771   862     9
  771   772   773   774     9
  771   772   773   872     9
  865   772   773   872     9
  771   772   865   866     9
  771   772   865   960     9
  773   772   865   866     9
  773   772   865   960     9
  774   773   772   865     9
  772   773   774   775     9
  772   773   774   779     9
  772   773   872   871     9
  772   773   872   873     9
  774   773   872   871     9
  774   773   872   873     9
  775   774   773   872     9
  779   774   773   872     9
  773   774   775   776     9
  773   774   779   778     9
  773   774   779   780     9
  775   774   779   778     9
  775   774   779   780     9
  770   775   774   773     9
  770   775   774   779     9
  776   775   774   779     9
  770   775   776   777     9
  774   775   776   777     9
  677   776   775   770     9
  677   776   775   774     9
  677   776   777   684     9
  677   776   777   778     9
  775   776   777   778     9
  684   777   776   775     9
  684   777   778   779     9
  684   777   778   783     9
  776   777   778   779     9
  776   777   778   783     9
  777   778   779   780     9
  777   778   783   782     9
  777   778   783   784     9
  779   778   783   782     9
  779   778   783   784     9
  774   779   778   777     9
  774   779   778   783     9
  780   779   778   783     9
  774   779   780   781     9
  774   779   780   873     9
  778   779   780   781     9
  778   779   780   873     9
  779   780   781   782     9
  779   780   781   880     9
  873   780   781   880     9
  779   780   873   872     9
  779   780   873   874     9
  781   780   873   872     9
  781   780   873   874     9
  782   781   780   873     9
  780   781   782   783     9
  780   781   782   787     9
  780   781   880   879     9
  780   781   880   881     9
  782   781   880   879     9
  782   781   880   881     9
  783   782   781   880     9
  787   782   781   880     9
  781   782   783   784     9
  781   782   787   786     9
  781   782   787   788     9
  783   782   787   786     9
  783   782   787   788     9
  778   783   782   781     9
  778   783   782   787     9
  784   783   782   787     9
  778   783   784   785     9
  782   783   784   785     9
  685   784   783   778     9
  685   784   783   782     9
  685   784   785   692     9
  685   784   785   786     9
  783   784   785   786     9
  692   785   784   783     9
  692   785   786   787     9
  692   785   786   791     9
  784   785   786   787     9
  784   785   786   791     9
  785   786   787   788     9
  785   786   791   790     9
  785   786   791   792     9
  787   786   791   790     9
  787   786   791   792     9
  782   787   786   785     9
  782   787   786   791     9
  788   787   786   791     9
  782   787   788   789     9
  782   787   788   881     9
  786   787   788   789     9
  786   787   788   881     9
  787   788   789   790     9
  787   788   789   888     9
  881   788   789   888     9
  787   788   881   880     9
  787   788   881   882     9
  789   788   881   880     9
  789   788   881   882     9
  790   789   788   881     9
  788   789   790   791     9
  788   789   790   795     9
  788   789   888   887     9
  788   789   888   889     9
  790   789   888   887     9
  790   789   888   889     9
  791   790   789   888     9
  795   790   789   888     9
  789   790   791   792     9
  789   790   795   794     9
  789   790   795   796     9
  791   790   795   794     9
  791   790   795   796     9
  786   791   790   789     9
  786   791   790   795     9
  792   791   790   795     9
  786   791   792   793     9
  790   791   792   793     9
  693   792   791   786     9
  693   792   791   790     9
  693   792   793   700     9
  693   792   793   794     9
  791   792   793   794     9
  700   793   792   791     9
  700   793   794   795     9
  700   793   794   799     9
  792   793   794   795     9
  792   793   794   799     9
  793   794   795   796     9
  793   794   799   798     9
  793   794   799   800     9
  795   794   799   798     9
  795   794   799   800     9
  790   795   794   793     9
  790   795   794   799     9
  796   795   794   799     9
  790   795   796   797     9
  790   795   796   889     9
  794   795   796   797     9
  794   795   796   889     9
  795   796   797   798     9
  795   796   797   896     9
  889   796   797   896     9
  795   796   889   888     9
  795   796   889   890     9
  797   796   889   888     9
  797   796   889   890     9
  798   797   796   889     9
  796   797   798   799     9
  796   797   798   803     9
  796   797   896   895     9
  796   797   896   897     9
  798   797   896   895     9
  798   797   896   897     9
  799   798   797   896     9
  803   798   797   896     9
  797   798   799   800     9
  797   798   803   802     9
  797   798   803   804     9
  799   798   803   802     9
  799   798   803   804     9
  794   799   798   797     9
  794   799   798   803     9
  800   799   798   803     9
  794   799   800   801     9
  798   799   800   801     9
  701   800   799   794     9
  701   800   799   798     9
  701   800   801   708     9
  701   800   801   802     9
  799   800   801   802     9
  708   801   800   799     9
  708   801   802   803     9
  708   801   802   807     9
  800   801   802   803     9
  800   801   802   807     9
  801   802   803   804     9
  801   802   807   806     9
  801   802   807   808     9
  803   802   807   806     9
  803   802   807   808     9
  798   803   802   801     9
  798   803   802   807     9
  804   803   802   807     9
  798   803   804   805     9
  798   803   804   897     9
  802   803   804   805     9
  802   803   804   897     9
  803   804   805   806     9
  803   804   805   904     9
  897   804   805   904     9
  803   804   897   896     9
  803   804   897   898     9
  805   804   897   896     9
  805   804   897   898     9
  806   805   804   897     9
  804   805   806   807     9
  804   805   806   811     9
  804   805   904   903     9
  804   805   904   905     9
  806   805   904   903     9
  806   805   904   905     9
  807   806   805   904     9
  811   806   805   904     9
  805   806   807   808     9
  805   806   811   810     9
  805   806   811   812     9
  807   806   811   810     9
  807   806   811   812     9
  802   807   806   805     9
  802   807   806   811     9
  808   807   806   811     9
  802   807   808   809     9
  806   807   808   809     9
  709   808   807   802     9
  709   808   807   806     9
  709   808   809   716     9
  709   808   809   810     9
  807   808   809   810     9
  716   809   808   807     9
  716   809   810   811     9
  716   809   810   815     9
  808   809   810   811     9
  808   809   810   815     9
  809   810   811   812     9
  809   810   815   814     9
  809   810   815   816     9
  811   810   815   814     9
  811   810   815   816     9
  806   811   810   809     9
  806   811   810   815     9
  812   811   810   815     9
  806   811   812   813     9
  806   811   812   905     9
  810   811   812   813     9
  810   811   812   905     9
  811   812   813   814     9
  811   812   813   912     9
  905   812   813   912     9
  811   812   905   904     9
  811   812   905   906     9
  813   812   905   904     9
  813   812   905   906     9
  814   813   812   905     9
  812   813   814   815     9
  812   813   814   819     9
  812   813   912   911     9
  812   813   912   913     9
  814   813   912   911     9
  814   813   912   913     9
  815   814   813   912     9
  819   814   813   912     9
  813   814   815   816     9
  813   814   819   818     9
  813   814   819   820     9
  815   814   819   818     9
  815   814   819   820     9
  810   815   814   813     9
  810   815   814   819     9
  816   815   814   819     9
  810   815   816   817     9
  814   815   816   817     9
  717   816   815   810     9
  717   816   815   814     9
  717   816   817   724     9
  717   816   817   818     9
  815   816   817   818     9
  724   817   816   815     9
  724   817   818   819     9
  724   817   818   823     9
  816   817   818   819     9
  816   817   818   823     9
  817   818   819   820     9
  817   818   823   822     9
  817   818   823   824     9
  819   818   823   822     9
  819   818   823   824     9
  814   819   818   817     9
  814   819   818   823     9
  820   819   818   823     9
  814   819   820   821     9
  814   819   820   913     9
  818   819   820   821     9
  818   819   820   913     9
  819   820   821   822     9
  819   820   821   920     9
  913   820   821   920     9
  819   820   913   912     9
  819   820   913   914     9
  821   820   913   912     9
  821   820   913   914     9
  822   821   820   913     9
  820   821   822   823     9
  820   821   822   827     9
  820   821   920   919     9
  820   821   920   921     9
  822   821   920   919     9
  822   821   920   921     9
  823   822   821   920     9
  827   822   821   920     9
  821   822   823   824     9
  821   822   827   826     9
  821   822   827   828     9
  823   822   827   826     9
  823   822   827   828     9
  818   823   822   821     9
  818   823   822   827     9
  824   823   822   827     9
  818   823   824   825     9
  822   823   824   825     9
  725   824   823   818     9
  725   824   823   822     9
  725   824   825   732     9
  725   824   825   826     9
  823   824   825   826     9
  732   825   824   823     9
  732   825   826   827     9
  732   825   826   831     9
  824   825   826   827     9
  824   825   826   831     9
  825   826   827   828     9
  825   826   831   830     9
  825   826   831   832     9
  827   826   831   830     9
  827   826   831   832     9
  822   827   826   825     9
  822   827   826   831     9
  828   827   826   831     9
  822   827   828   829     9
  822   827   828   921     9
  826   827   828   829     9
  826   827   828   921     9
  827   828   829   830     9
  827   828   829   928     9
  921   828   829   928     9
  827   828   921   920     9
  827   828   921   922     9
  829   828   921   920     9
  829   828   921   922     9
  830   829   828   921     9
  828   829   830   831     9
  828   829   830   835     9
  828   829   928   927     9
  828   829   928   929     9
  830   829   928   927     9
  830   829   928   929     9
  831   830   829   928     9
  835   830   829   928     9
  829   830   831   832     9
  829   830   835   834     9
  829   830   835   836     9
  831   830   835   834     9
  831   830   835   836     9
  826   831   830   829     9
  826   831   830   835     9
  832   831   830   835     9
  826   831   832   833     9
  830   831   832   833     9
  733   832   831   826     9
  733   832   831   830     9
  733   832   833   740     9
  733   832   833   834     9
  831   832   833   834     9
  740   833   832   831     9
  740   833   834   835     9
  740   833   834   839     9
  832   833   834   835     9
  832   833   834   839     9
  833   834   835   836     9
  833   834   839   838     9
  833   834   839   840     9
  835   834   839   838     9
  835   834   839   840     9
  830   835   834   833     9
  830   835   834   839     9
  836   835   834   839     9
  830   835   836   837     9
  830   835   836   929     9
  834   835   836   837     9
  834   835   836   929     9
  835   836   837   838     9
  835   836   837   936     9
  929   836   837   936     9
  835   836   929   928     9
  835   836   929   930     9
  837   836   929   928     9
  837   836   929   930     9
  838   837   836   929     9
  836   837   838   839     9
  836   837   838   843     9
  836   837   936   935     9
  836   837   936   937     9
  838   837   936   935     9
  838   837   936   937     9
  839   838   837   936     9
  843   838   837   936     9
  837   838   839   840     9
  837   838   843   842     9
  837   838   843   844     9
  839   838   843   842     9
  839   838   843   844     9
  834   839   838   837     9
  834   839   838   843     9
  840   839   838   843     9
  834   839   840   841     9
  838   839   840   841     9
  741   840   839   834     9
  741   840   839   838     9
  741   840   841   748     9
  741   840   841   842     9
  839   840   841   842     9
  748   841   840   839     9
  748   841   842   843     9
  748   841   842   847     9
  840   841   842   843     9
  840   841   842   847     9
  841   842   843   844     9
  841   842   847   846     9
  841   842   847   848     9
  843   842   847   846     9
  843   842   847   848     9
  838   843   842   841     9
  838   843   842   847     9
  844   843   842   847     9
  838   843   844   845     9
  838   843   844   937     9
  842   843   844   845     9
  842   843   844   937     9
  843   844   845   846     9
  843   844   845   944     9
  937   844   845   944     9
  843   844   937   936     9
  843   844   937   938     9
  845   844   937   936     9
  845   844   937   938     9
  846   845   844   937     9
  844   845   846   847     9
  844   845   846   851     9
  844   845   944   943     9
  844   845   944   945     9
  846   845   944   943     9
  846   845   944   945     9
  847   846   845   944     9
  851   846   845   944     9
  845   846   847   848     9
  845   846   851   850     9
  845   846   851   852     9
  847   846   851   850     9
  847   846   851   852     9
  842   847   846   845     9
  842   847   846   851     9
  848   847   846   851     9
  842   847   848   849     9
  846   847   848   849     9
  749   848   847   842     9
  749   848   847   846     9
  749   848   849   756     9
  749   848   849   850     9
  847   848   849   850     9
  756   849   848   847     9
  756   849   850   851     9
  756   849   850   855     9
  848   849   850   851     9
  848   849   850   855     9
  849   850   851   852     9
  849   850   855   854     9
  849   850   855   856     9
  851   850   855   854     9
  851   850   855   856     9
  846   851   850   849     9
  846   851   850   855     9
  852   851   850   855     9
  846   851   852   853     9
  846   851   852   945     9
  850   851   852   853     9
  850   851   852   945     9
  851   852   853   854     9
  851   852   853   952     9
  945   852   853   952     9
  851   852   945   944     9
  851   852   945   946     9
  853   852   945   944     9
  853   852   945   946     9
  854   853   852   945     9
  852   853   854   855     9
  852   853   854   859     9
  852   853   952   951     9
  852   853   952   953     9
  854   853   952   951     9
  854   853   952   953     9
  855   854   853   952     9
  859   854   853   952     9
  853   854   855   856     9
  853   854   859   858     9
  853   854   859   860     9
  855   854   859   858     9
  855   854   859   860     9
  850   855   854   853     9
  850   855   854   859     9
  856   855   854   859     9
  850   855   856   857     9
  854   855   856   857     9
  757   856   855   850     9
  757   856   855   854     9
  757   856   857   764     9
  757   856   857   858     9
  855   856   857   858     9
  764   857   856   855     9
  764   857   858   859     9
  764   857   858   863     9
  856   857   858   859     9
  856   857   858   863     9
  857   858   859   860     9
  857   858   863   862     9
  857   858   863   864     9
  859   858   863   862     9
  859   858   863   864     9
  854   859   858   857     9
  854   859   858   863     9
  860   859   858   863     9
  854   859   860   861     9
  854   859   860   953     9
  858   859   860   861     9
  858   859   860   953     9
  859   860   861   862     9
  859   860   861   960     9
  953   860   861   960     9
  859   860   953   952     9
  859   860   953   954     9
  861   860   953   952     9
  861   860   953   954     9
  862   861   860   953     9
  860   861   862   863     9
  860   861   960   865     9
  860   861   960   959     9
  862   861   960   865     9
  862   861   960   959     9
  771   862   861   860     9
  771   862   861   960     9
  863   862   861   960     9
  771   862   863   858     9
  771   862   863   864     9
  861   862   863   864     9
  858   863   862   861     9
  765   864   769   770     9
  765   864   863   858     9
  765   864   863   862     9
  769   864   863   858     9
  769   864   863   862     9
  772   865   866   867     9
  772   865   866   871     9
  772   865   960   861     9
  772   865   960   959     9
  866   865   960   959     9
  867   866   865   960     9
  871   866   865   960     9
  865   866   867   868     9
  865   866   867   958     9
  871   866   867   958     9
  865   866   871   870     9
  865   866   871   872     9
  867   866   871   870     9
  867   866   871   872     9
  868   867   866   871     9
  866   867   868   869     9
  866   867   868   961     9
  958   867   868   961     9
  866   867   958   957     9
  866   867   958   959     9
  868   867   958   957     9
  868   867   958   959     9
  869   868   867   958     9
  867   868   869   870     9
  867   868   869   968     9
  961   868   869   968     9
  867   868   961   962     9
  867   868   961  1056     9
  869   868   961   962     9
  869   868   961  1056     9
  870   869   868   961     9
  868   869   870   871     9
  868   869   870   875     9
  868   869   968   967     9
  868   869   968   969     9
  870   869   968   967     9
  870   869   968   969     9
  871   870   869   968     9
  875   870   869   968     9
  869   870   871   872     9
  869   870   875   874     9
  869   870   875   876     9
  871   870   875   874     9
  871   870   875   876     9
  866   871   870   869     9
  866   871   870   875     9
  872   871   870   875     9
  866   871   872   873     9
  870   871   872   873     9
  773   872   871   866     9
  773   872   871   870     9
  773   872   873   780     9
  773   872   873   874     9
  871   872   873   874     9
  780   873   872   871     9
  780   873   874   875     9
  780   873   874   879     9
  872   873   874   875     9
  872   873   874   879     9
  873   874   875   876     9
  873   874   879   878     9
  873   874   879   880     9
  875   874   879   878     9
  875   874   879   880     9
  870   875   874   873     9
  870   875   874   879     9
  876   875   874   879     9
  870   875   876   877     9
  870   875   876   969     9
  874   875   876   877     9
  874   875   876   969     9
  875   876   877   878     9
  875   876   877   976     9
  969   876   877   976     9
  875   876   969   968     9
  875   876   969   970     9
  877   876   969   968     9
  877   876   969   970     9
  878   877   876   969     9
  876   877   878   879     9
  876   877   878   883     9
  876   877   976   975     9
  876   877   976   977     9
  878   877   976   975     9
  878   877   976   977     9
  879   878   877   976     9
  883   878   877   976     9
  877   878   879   880     9
  877   878   883   882     9
  877   878   883   884     9
  879   878   883   882     9
  879   878   883   884     9
  874   879   878   877     9
  874   879   878   883     9
  880   879   878   883     9
  874   879   880   881     9
  878   879   880   881     9
  781   880   879   874     9
  781   880   879   878     9
  781   880   881   788     9
  781   880   881   882     9
  879   880   881   882     9
  788   881   880   879     9
  788   881   882   883     9
  788   881   882   887     9
  880   881   882   883     9
  880   881   882   887     9
  881   882   883   884     9
  881   882   887   886     9
  881   882   887   888     9
  883   882   887   886     9
  883   882   887   888     9
  878   883   882   881     9
  878   883   882   887     9
  884   883   882   887     9
  878   883   884   885     9
  878   883   884   977     9
  882   883   884   885     9
  882   883   884   977     9
  883   884   885   886     9
  883   884   885   984     9
  977   884   885   984     9
  883   884   977   976     9
  883   884   977   978     9
  885   884   977   976     9
  885   884   977   978     9
  886   885   884   977     9
  884   885   886   887     9
  884   885   886   891     9
  884   885   984   983     9
  884   885   984   985     9
  886   885   984   983     9
  886   885   984   985     9
  887   886   885   984     9
  891   886   885   984     9
  885   886   887   888     9
  885   886   891   890     9
  885   886   891   892     9
  887   886   891   890     9
  887   886   891   892     9
  882   887   886   885     9
  882   887   886   891     9
  888   887   886   891     9
  882   887   888   889     9
  886   887   888   889     9
  789   888   887   882     9
  789   888   887   886     9
  789   888   889   796     9
  789   888   889   890     9
  887   888   889   890     9
  796   889   888   887     9
  796   889   890   891     9
  796   889   890   895     9
  888   889   890   891     9
  888   889   890   895     9
  889   890   891   892     9
  889   890   895   894     9
  889   890   895   896     9
  891   890   895   894     9
  891   890   895   896     9
  886   891   890   889     9
  886   891   890   895     9
  892   891   890   895     9
  886   891   892   893     9
  886   891   892   985     9
  890   891   892   893     9
  890   891   892   985     9
  891   892   893   894     9
  891   892   893   992     9
  985   892   893   992     9
  891   892   985   984     9
  891   892   985   986     9
  893   892   985   984     9
  893   892   985   986     9
  894   893   892   985     9
  892   893   894   895     9
  892   893   894   899     9
  892   893   992   991     9
  892   893   992   993     9
  894   893   992   991     9
  894   893   992   993     9
  895   894   893   992     9
  899   894   893   992     9
  893   894   895   896     9
  893   894   899   898     9
  893   894   899   900     9
  895   894   899   898     9
  895   894   899   900     9
  890   895   894   893     9
  890   895   894   899     9
  896   895   894   899     9
  890   895   896   897     9
  894   895   896   897     9
  797   896   895   890     9
  797   896   895   894     9
  797   896   897   804     9
  797   896   897   898     9
  895   896   897   898     9
  804   897   896   895     9
  804   897   898   899     9
  804   897   898   903     9
  896   897   898   899     9
  896   897   898   903     9
  897   898   899   900     9
  897   898   903   902     9
  897   898   903   904     9
  899   898   903   902     9
  899   898   903   904     9
  894   899   898   897     9
  894   899   898   903     9
  900   899   898   903     9
  894   899   900   901     9
  894   899   900   993     9
  898   899   900   901     9
  898   899   900   993     9
  899   900   901   902     9
  899   900   901  1000     9
  993   900   901  1000     9
  899   900   993   992     9
  899   900   993   994     9
  901   900   993   992     9
  901   900   993   994     9
  902   901   900   993     9
  900   901   902   903     9
  900   901   902   907     9
  900   901  1000   999     9
  900   901  1000  1001     9
  902   901  1000   999     9
  902   901  1000  1001     9
  903   902   901  1000     9
  907   902   901  1000     9
  901   902   903   904     9
  901   902   907   906     9
  901   902   907   908     9
  903   902   907   906     9
  903   902   907   908     9
  898   903   902   901     9
  898   903   902   907     9
  904   903   902   907     9
  898   903   904   905     9
  902   903   904   905     9
  805   904   903   898     9
  805   904   903   902     9
  805   904   905   812     9
  805   904   905   906     9
  903   904   905   906     9
  812   905   904   903     9
  812   905   906   907     9
  812   905   906   911     9
  904   905   906   907     9
  904   905   906   911     9
  905   906   907   908     9
  905   906   911   910     9
  905   906   911   912     9
  907   906   911   910     9
  907   906   911   912     9
  902   907   906   905     9
  902   907   906   911     9
  908   907   906   911     9
  902   907   908   909     9
  902   907   908  1001     9
  906   907   908   909     9
  906   907   908  1001     9
  907   908   909   910     9
  907   908   909  1008     9
 1001   908   909  1008     9
  907   908  1001  1000     9
  907   908  1001  1002     9
  909   908  1001  1000     9
  909   908  1001  1002     9
  910   909   908  1001     9
  908   909   910   911     9
  908   909   910   915     9
  908   909  1008  1007     9
  908   909  1008  1009     9
  910   909  1008  1007     9
  910   909  1008  1009     9
  911   910   909  1008     9
  915   910   909  1008     9
  909   910   911   912     9
  909   910   915   914     9
  909   910   915   916     9
  911   910   915   914     9
  911   910   915   916     9
  906   911   910   909     9
  906   911   910   915     9
  912   911   910   915     9
  906   911   912   913     9
  910   911   912   913     9
  813   912   911   906     9
  813   912   911   910     9
  813   912   913   820     9
  813   912   913   914     9
  911   912   913   914     9
  820   913   912   911     9
  820   913   914   915     9
  820   913   914   919     9
  912   913   914   915     9
  912   913   914   919     9
  913   914   915   916     9
  913   914   919   918     9
  913   914   919   920     9
  915   914   919   918     9
  915   914   919   920     9
  910   915   914   913     9
  910   915   914   919     9
  916   915   914   919     9
  910   915   916   917     9
  910   915   916  1009     9
  914   915   916   917     9
  914   915   916  1009     9
  915   916   917   918     9
  915   916   917  1016     9
 1009   916   917  1016     9
  915   916  1009  1008     9
  915   916  1009  1010     9
  917   916  1009  1008     9
  917   916  1009  1010     9
  918   917   916  1009     9
  916   917   918   919     9
  916   917   918   923     9
  916   917  1016  1015     9
  916   917  1016  1017     9
  918   917  1016  1015     9
  918   917  1016  1017     9
  919   918   917  1016     9
  923   918   917  1016     9
  917   918   919   920     9
  917   918   923   922     9
  917   918   923   924     9
  919   918   923   922     9
  919   918   923   924     9
  914   919   918   917     9
  914   919   918   923     9
  920   919   918   923     9
  914   919   920   921     9
  918   919   920   921     9
  821   920   919   914     9
  821   920   919   918     9
  821   920   921   828     9
  821   920   921   922     9
  919   920   921   922     9
  828   921   920   919     9
  828   921   922   923     9
  828   921   922   927     9
  920   921   922   923     9
  920   921   922   927     9
  921   922   923   924     9
  921   922   927   926     9
  921   922   927   928     9
  923   922   927   926     9
  923   922   927   928     9
  918   923   922   921     9
  918   923   922   927     9
  924   923   922   927     9
  918   923   924   925     9
  918   923   924  1017     9
  922   923   924   925     9
  922   923   924  1017     9
  923   924   925   926     9
  923   924   925  1024     9
 1017   924   925  1024     9
  923   924  1017  1016     9
  923   924  1017  1018     9
  925   924  1017  1016     9
  925   924  1017  1018     9
  926   925   924  1017     9
  924   925   926   927     9
  924   925   926   931     9
  924   925  1024  1023     9
  924   925  1024  1025     9
  926   925  1024  1023     9
  926   925  1024  1025     9
  927   926   925  1024     9
  931   926   925  1024     9
  925   926   927   928     9
  925   926   931   930     9
  925   926   931   932     9
  927   926   931   930     9
  927   926   931   932     9
  922   927   926   925     9
  922   927   926   931     9
  928   927   926   931     9
  922   927   928   929     9
  926   927   928   929     9
  829   928   927   922     9
  829   928   927   926     9
  829   928   929   836     9
  829   928   929   930     9
  927   928   929   930     9
  836   929   928   927     9
  836   929   930   931     9
  836   929   930   935     9
  928   929   930   931     9
  928   929   930   935     9
  929   930   931   932     9
  929   930   935   934     9
  929   930   935   936     9
  931   930   935   934     9
  931   930   935   936     9
  926   931   930   929     9
  926   931   930   935     9
  932   931   930   935     9
  926   931   932   933     9
  926   931   932  1025     9
  930   931   932   933     9
  930   931   932  1025     9
  931   932   933   934     9
  931   932   933  1032     9
 1025   932   933  1032     9
  931   932  1025  1024     9
  931   932  1025  1026     9
  933   932  1025  1024     9
  933   932  1025  1026     9
  934   933   932  1025     9
  932   933   934   935     9
  932   933   934   939     9
  932   933  1032  1031     9
  932   933  1032  1033     9
  934   933  1032  1031     9
  934   933  1032  1033     9
  935   934   933  1032     9
  939   934   933  1032     9
  933   934   935   936     9
  933   934   939   938     9
  933   934   939   940     9
  935   934   939   938     9
  935   934   939   940     9
  930   935   934   933     9
  930   935   934   939     9
  936   935   934   939     9
  930   935   936   937     9
  934   935   936   937     9
  837   936   935   930     9
  837   936   935   934     9
  837   936   937   844     9
  837   936   937   938     9
  935   936   937   938     9
  844   937   936   935     9
  844   937   938   939     9
  844   937   938   943     9
  936   937   938   939     9
  936   937   938   943     9
  937   938   939   940     9
  937   938   943   942     9
  937   938   943   944     9
  939   938   943   942     9
  939   938   943   944     9
  934   939   938   937     9
  934   939   938   943     9
  940   939   938   943     9
  934   939   940   941     9
  934   939   940  1033     9
  938   939   940   941     9
  938   939   940  1033     9
  939   940   941   942     9
  939   940   941  1040     9
 1033   940   941  1040     9
  939   940  1033  1032     9
  939   940  1033  1034     9
  941   940  1033  1032     9
  941   940  1033  1034     9
  942   941   940  1033     9
  940   941   942   943     9
  940   941   942   947     9
  940   941  1040  1039     9
  940   941  1040  1041     9
  942   941  1040  1039     9
  942   941  1040  1041     9
  943   942   941  1040     9
  947   942   941  1040     9
  941   942   943   944     9
  941   942   947   946     9
  941   942   947   948     9
  943   942   947   946     9
  943   942   947   948     9
  938   943   942   941     9
  938   943   942   947     9
  944   943   942   947     9
  938   943   944   945     9
  942   943   944   945     9
  845   944   943   938     9
  845   944   943   942     9
  845   944   945   852     9
  845   944   945   946     9
  943   944   945   946     9
  852   945   944   943     9
  852   945   946   947     9
  852   945   946   951     9
  944   945   946   947     9
  944   945   946   951     9
  945   946   947   948     9
  945   946   951   950     9
  945   946   951   952     9
  947   946   951   950     9
  947   946   951   952     9
  942   947   946   945     9
  942   947   946   951     9
  948   947   946   951     9
  942   947   948   949     9
  942   947   948  1041     9
  946   947   948   949     9
  946   947   948  1041     9
  947   948   949   950     9
  947   948   949  1048     9
 1041   948   949  1048     9
  947   948  1041  1040     9
  947   948  1041  1042     9
  949   948  1041  1040     9
  949   948  1041  1042     9
  950   949   948  1041     9
  948   949   950   951     9
  948   949   950   955     9
  948   949  1048  1047     9
  948   949  1048  1049     9
  950   949  1048  1047     9
  950   949  1048  1049     9
  951   950   949  1048     9
  955   950   949  1048     9
  949   950   951   952     9
  949   950   955   954     9
  949   950   955   956     9
  951   950   955   954     9
  951   950   955   956     9
  946   951   950   949     9
  946   951   950   955     9
  952   951   950   955     9
  946   951   952   953     9
  950   951   952   953     9
  853   952   951   946     9
  853   952   951   950     9
  853   952   953   860     9
  853   952   953   954     9
  951   952   953   954     9
  860   953   952   951     9
  860   953   954   955     9
  860   953   954   959     9
  952   953   954   955     9
  952   953   954   959     9
  953   954   955   956     9
  953   954   959   958     9
  953   954   959   960     9
  955   954   959   958     9
  955   954   959   960     9
  950   955   954   953     9
  950   955   954   959     9
  956   955   954   959     9
  950   955   956   957     9
  950   955   956  1049     9
  954   955   956   957     9
  954   955   956  1049     9
  955   956   957   958     9
  955   956   957  1056     9
 1049   956   957  1056     9
  955   956  1049  1048     9
  955   956  1049  1050     9
  957   956  1049  1048     9
  957   956  1049  1050     9
  958   957   956  1049     9
  956   957   958   959     9
  956   957  1056   961     9
  956   957  1056  1055     9
  958   957  1056   961     9
  958   957  1056  1055     9
  867   958   957   956     9
  867   958   957  1056     9
  959   958   957  1056     9
  867   958   959   954     9
  867   958   959   960     9
  957   958   959   960     9
  954   959   958   957     9
  861   960   865   866     9
  861   960   959   954     9
  861   960   959   958     9
  865   960   959   954     9
  865   960   959   958     9
  868   961   962   963     9
  868   961   962   967     9
  868   961  1056   957     9
  868   961  1056  1055     9
  962   961  1056  1055     9
  963   962   961  1056     9
  967   962   961  1056     9
  961   962   963   964     9
  961   962   963  1054     9
  967   962   963  1054     9
  961   962   967   966     9
  961   962   967   968     9
  963   962   967   966     9
  963   962   967   968     9
  964   963   962   967     9
  962   963   964   965     9
  962   963  1054  1053     9
  962   963  1054  1055     9
  964   963  1054  1053     9
  964   963  1054  1055     9
    1   964   963   962     9
    1   964   963  1054     9
  965   964   963  1054     9
    1   964   965     8     9
    1   964   965   966     9
  963   964   965   966     9
    8   965   964   963     9
    8   965   966   967     9
    8   965   966   971     9
  964   965   966   967     9
  964   965   966   971     9
  965   966   967   968     9
  965   966   971   970     9
  965   966   971   972     9
  967   966   971   970     9
  967   966   971   972     9
  962   967   966   965     9
  962   967   966   971     9
  968   967   966   971     9
  962   967   968   969     9
  966   967   968   969     9
  869   968   967   962     9
  869   968   967   966     9
  869   968   969   876     9
  869   968   969   970     9
  967   968   969   970     9
  876   969   968   967     9
  876   969   970   971     9
  876   969   970   975     9
  968   969   970   971     9
  968   969   970   975     9
  969   970   971   972     9
  969   970   975   974     9
  969   970   975   976     9
  971   970   975   974     9
  971   970   975   976     9
  966   971   970   969     9
  966   971   970   975     9
  972   971   970   975     9
  966   971   972   973     9
  970   971   972   973     9
    9   972   971   966     9
    9   972   971   970     9
    9   972   973    16     9
    9   972   973   974     9
  971   972   973   974     9
   16   973   972   971     9
   16   973   974   975     9
   16   973   974   979     9
  972   973   974   975     9
  972   973   974   979     9
  973   974   975   976     9
  973   974   979   978     9
  973   974   979   980     9
  975   974   979   978     9
  975   974   979   980     9
  970   975   974   973     9
  970   975   974   979     9
  976   975   974   979     9
  970   975   976   977     9
  974   975   976   977     9
  877   976   975   970     9
  877   976   975   974     9
  877   976   977   884     9
  877   976   977   978     9
  975   976   977   978     9
  884   977   976   975     9
  884   977   978   979     9
  884   977   978   983     9
  976   977   978   979     9
  976   977   978   983     9
  977   978   979   980     9
  977   978   983   982     9
  977   978   983   984     9
  979   978   983   982     9
  979   978   983   984     9
  974   979   978   977     9
  974   979   978   983     9
  980   979   978   983     9
  974   979   980   981     9
  978   979   980   981     9
   17   980   979   974     9
   17   980   979   978     9
   17   980   981    24     9
   17   980   981   982     9
  979   980   981   982     9
   24   981   980   979     9
   24   981   982   983     9
   24   981   982   987     9
  980   981   982   983     9
  980   981   982   987     9
  981   982   983   984     9
  981   982   987   986     9
  981   982   987   988     9
  983   982   987   986     9
  983   982   987   988     9
  978   983   982   981     9
  978   983   982   987     9
  984   983   982   987     9
  978   983   984   985     9
  982   983   984   985     9
  885   984   983   978     9
  885   984   983   982     9
  885   984   985   892     9
  885   984   985   986     9
  983   984   985   986     9
  892   985   984   983     9
  892   985   986   987     9
  892   985   986   991     9
  984   985   986   987     9
  984   985   986   991     9
  985   986   987   988     9
  985   986   991   990     9
  985   986   991   992     9
  987   986   991   990     9
  987   986   991   992     9
  982   987   986   985     9
  982   987   986   991     9
  988   987   986   991     9
  982   987   988   989     9
  986   987   988   989     9
   25   988   987   982     9
   25   988   987   986     9
   25   988   989    32     9
   25   988   989   990     9
  987   988   989   990     9
   32   989   988   987     9
   32   989   990   991     9
   32   989   990   995     9
  988   989   990   991     9
  988   989   990   995     9
  989   990   991   992     9
  989   990   995   994     9
  989   990   995   996     9
  991   990   995   994     9
  991   990   995   996     9
  986   991   990   989     9
  986   991   990   995     9
  992   991   990   995     9
  986   991   992   993     9
  990   991   992   993     9
  893   992   991   986     9
  893   992   991   990     9
  893   992   993   900     9
  893   992   993   994     9
  991   992   993   994     9
  900   993   992   991     9
  900   993   994   995     9
  900   993   994   999     9
  992   993   994   995     9
  992   993   994   999     9
  993   994   995   996     9
  993   994   999   998     9
  993   994   999  1000     9
  995   994   999   998     9
  995   994   999  1000     9
  990   995   994   993     9
  990   995   994   999     9
  996   995   994   999     9
  990   995   996   997     9
  994   995   996   997     9
   33   996   995   990     9
   33   996   995   994     9
   33   996   997    40     9
   33   996   997   998     9
  995   996   997   998     9
   40   997   996   995     9
   40   997   998   999     9
   40   997   998  1003     9
  996   997   998   999     9
  996   997   998  1003     9
  997   998   999  1000     9
  997   998  1003  1002     9
  997   998  1003  1004     9
  999   998  1003  1002     9
  999   998  1003  1004     9
  994   999   998   997     9
  994   999   998  1003     9
 1000   999   998  1003     9
  994   999  1000  1001     9
  998   999  1000  1001     9
  901  1000   999   994     9
  901  1000   999   998     9
  901  1000  1001   908     9
  901  1000  1001  1002     9
  999  1000  1001  1002     9
  908  1001  1000   999     9
  908  1001  1002  1003     9
  908  1001  1002  1007     9
 1000  1001  1002  1003     9
 1000  1001  1002  1007     9
 1001  1002  1003  1004     9
 1001  1002  1007  1006     9
 1001  1002  1007  1008     9
 1003  1002  1007  1006     9
 1003  1002  1007  1008     9
  998  1003  1002  1001     9
  998  1003  1002  1007     9
 1004  1003  1002  1007     9
  998  1003  1004  1005     9
 1002  1003  1004  1005     9
   41  1004  1003   998     9
   41  1004  1003  1002     9
   41  1004  1005    48     9
   41  1004  1005  1006     9
 1003  1004  1005  1006     9
   48  1005  1004  1003     9
   48  1005  1006  1007     9
   48  1005  1006  1011     9
 1004  1005  1006  1007     9
 1004  1005  1006  1011     9
 1005  1006  1007  1008     9
 1005  1006  1011  1010     9
 1005  1006  1011  1012     9
 1007  1006  1011  1010     9
 1007  1006  1011  1012     9
 1002  1007  1006  1005     9
 1002  1007  1006  1011     9
 1008  1007  1006  1011     9
 1002  1007  1008  1009     9
 1006  1007  1008  1009     9
  909  1008  1007  1002     9
  909  1008  1007  1006     9
  909  1008  1009   916     9
  909  1008  1009  1010     9
 1007  1008  1009  1010     9
  916  1009  1008  1007     9
  916  1009  1010  1011     9
  916  1009  1010  1015     9
 1008  1009  1010  1011     9
 1008  1009  1010  1015     9
 1009  1010  1011  1012     9
 1009  1010  1015  1014     9
 1009  1010  1015  1016     9
 1011  1010  1015  1014     9
 1011  1010  1015  1016     9
 1006  1011  1010  1009     9
 1006  1011  1010  1015     9
 1012  1011  1010  1015     9
 1006  1011  1012  1013     9
 1010  1011  1012  1013     9
   49  1012  1011  1006     9
   49  1012  1011  1010     9
   49  1012  1013    56     9
   49  1012  1013  1014     9
 1011  1012  1013  1014     9
   56  1013  1012  1011     9
   56  1013  1014  1015     9
   56  1013  1014  1019     9
 1012  1013  1014  1015     9
 1012  1013  1014  1019     9
 1013  1014  1015  1016     9
 1013  1014  1019  1018     9
 1013  1014  1019  1020     9
 1015  1014  1019  1018     9
 1015  1014  1019  1020     9
 1010  1015  1014  1013     9
 1010  1015  1014  1019     9
 1016  1015  1014  1019     9
 1010  1015  1016  1017     9
 1014  1015  1016  1017     9
  917  1016  1015  1010     9
  917  1016  1015  1014     9
  917  1016  1017   924     9
  917  1016  1017  1018     9
 1015  1016  1017  1018     9
  924  1017  1016  1015     9
  924  1017  1018  1019     9
  924  1017  1018  1023     9
 1016  1017  1018  1019     9
 1016  1017  1018  1023     9
 1017  1018  1019  1020     9
 1017  1018  1023  1022     9
 1017  1018  1023  1024     9
 1019  1018  1023  1022     9
 1019  1018  1023  1024     9
 1014  1019  1018  1017     9
 1014  1019  1018  1023     9
 1020  1019  1018  1023     9
 1014  1019  1020  1021     9
 1018  1019  1020  1021     9
   57  1020  1019  1014     9
   57  1020  1019  1018     9
   57  1020  1021    64     9
   57  1020  1021  1022     9
 1019  1020  1021  1022     9
   64  1021  1020  1019     9
   64  1021  1022  1023     9
   64  1021  1022  1027     9
 1020  1021  1022  1023     9
 1020  1021  1022  1027     9
 1021  1022  1023  1024     9
 1021  1022  1027  1026     9
 1021  1022  1027  1028     9
 1023  1022  1027  1026     9
 1023  1022  1027  1028     9
 1018  1023  1022  1021     9
 1018  1023  1022  1027     9
 1024  1023  1022  1027     9
 1018  1023  1024  1025     9
 1022  1023  1024  1025     9
  925  1024  1023  1018     9
  925  1024  1023  1022     9
  925  1024  1025   932     9
  925  1024  1025  1026     9
 1023  1024  1025  1026     9
  932  1025  1024  1023     9
  932  1025  1026  1027     9
  932  1025  1026  1031     9
 1024  1025  1026  1027     9
 1024  1025  1026  1031     9
 1025  1026  1027  1028     9
 1025  1026  1031  1030     9
 1025  1026  1031  1032     9
 1027  1026  1031  1030     9
 1027  1026  1031  1032     9
 1022  1027  1026  1025     9
 1022  1027  1026  1031     9
 1028  1027  1026  1031     9
 1022  1027  1028  1029     9
 1026  1027  1028  1029     9
   65  1028  1027  1022     9
   65  1028  1027  1026     9
   65  1028  1029    72     9
   65  1028  1029  1030     9
 1027  1028  1029  1030     9
   72  1029  1028  1027     9
   72  1029  1030  1031     9
   72  1029  1030  1035     9
 1028  1029  1030  1031     9
 1028  1029  1030  1035     9
 1029  1030  1031  1032     9
 1029  1030  1035  1034     9
 1029  1030  1035  1036     9
 1031  1030  1035  1034     9
 1031  1030  1035  1036     9
 1026  1031  1030  1029     9
 1026  1031  1030  1035     9
 1032  1031  1030  1035     9
 1026  1031  1032  1033     9
 1030  1031  1032  1033     9
  933  1032  1031  1026     9
  933  1032  1031  1030     9
  933  1032  1033   940     9
  933  1032  1033  1034     9
 1031  1032  1033  1034     9
  940  1033  1032  1031     9
  940  1033  1034  1035     9
  940  1033  1034  1039     9
 1032  1033  1034  1035     9
 1032  1033  1034  1039     9
 1033  1034  1035  1036     9
 1033  1034  1039  1038     9
 1033  1034  1039  1040     9
 1035  1034  1039  1038     9
 1035  1034  1039  1040     9
 1030  1035  1034  1033     9
 1030  1035  1034  1039     9
 1036  1035  1034  1039     9
 1030  1035  1036  1037     9
 1034  1035  1036  1037     9
   73  1036  1035  1030     9
   73  1036  1035  1034     9
   73  1036  1037    80     9
   73  1036  1037  1038     9
 1035  1036  1037  1038     9
   80  1037  1036  1035     9
   80  1037  1038  1039     9
   80  1037  1038  1043     9
 1036  1037  1038  1039     9
 1036  1037  1038  1043     9
 1037  1038  1039  1040     9
 1037  1038  1043  1042     9
 1037  1038  1043  1044     9
 1039  1038  1043  1042     9
 1039  1038  1043  1044     9
 1034  1039  1038  1037     9
 1034  1039  1038  1043     9
 1040  1039  1038  1043     9
 1034  1039  1040  1041     9
 1038  1039  1040  1041     9
  941  1040  1039  1034     9
  941  1040  1039  1038     9
  941  1040  1041   948     9
  941  1040  1041  1042     9
 1039  1040  1041  1042     9
  948  1041  1040  1039     9
  948  1041  1042  1043     9
  948  1041  1042  1047     9
 1040  1041  1042  1043     9
 1040  1041  1042  1047     9
 1041  1042  1043  1044     9
 1041  1042  1047  1046     9
 1041  1042  1047  1048     9
 1043  1042  1047  1046     9
 1043  1042  1047  1048     9
 1038  1043  1042  1041     9
 1038  1043  1042  1047     9
 1044  1043  1042  1047     9
 1038  1043  1044  1045     9
 1042  1043  1044  1045     9
   81  1044  1043  1038     9
   81  1044  1043  1042     9
   81  1044  1045    88     9
   81  1044  1045  1046     9
 1043  1044  1045  1046     9
   88  1045  1044  1043     9
   88  1045  1046  1047     9
   88  1045  1046  1051     9
 1044  1045  1046  1047     9
 1044  1045  1046  1051     9
 1045  1046  1047  1048     9
 1045  1046  1051  1050     9
 1045  1046  1051  1052     9
 1047  1046  1051  1050     9
 1047  1046  1051  1052     9
 1042  1047  1046  1045     9
 1042  1047  1046  1051     9
 1048  1047  1046  1051     9
 1042  1047  1048  1049     9
 1046  1047  1048  1049     9
  949  1048  1047  1042     9
  949  1048  1047  1046     9
  949  1048  1049   956     9
  949  1048  1049  1050     9
 1047  1048  1049  1050     9
  956  1049  1048  1047     9
  956  1049  1050  1051     9
  956  1049  1050  1055     9
 1048  1049  1050  1051     9
 1048  1049  1050  1055     9
 1049  1050  1051  1052     9
 1049  1050  1055  1054     9
 1049  1050  1055  1056     9
 1051  1050  1055  1054     9
 1051  1050  1055  1056     9
 1046  1051  1050  1049     9
 1046  1051  1050  1055     9
 1052  1051  1050  1055     9
 1046  1051  1052  1053     9
 1050  1051  1052  1053     9
   89  1052  1051  1046     9
   89  1052  1051  1050     9
   89  1052  1053    96     9
   89  1052  1053  1054     9
 1051  1052  1053  1054     9
   96  1053  1052  1051     9
   96  1053  1054   963     9
   96  1053  1054  1055     9
 1052  1053  1054  1055     9
  963  1054  1053  1052     9
  963  1054  1055  1050     9
  963  1054  1055  1056     9
 1053  1054  1055  1056     9
 1050  1055  1054  1053     9
  957  1056   961   962     9
  957  1056  1055  1050     9
  957  1056  1055  1054     9
  961  1056  1055  1050     9
  961  1056  1055  1054     9

#ifdef POSRES
[ position_restraints ]
    1     1    POSRES_FC_BB    POSRES_FC_BB    POSRES_FC_BB   
    2     1    POSRES_FC_BB    POSRES_FC_BB    POSRES_FC_BB   
    3     1    POSRES_FC_BB    POSRES_FC_BB    POSRES_FC_BB   
    4     1    POSRES_FC_BB    POSRES_FC_BB    POSRES_FC_BB   
    5     1    POSRES_FC_BB    POSRES_FC_BB    POSRES_FC_BB   
    6     1    POSRES_FC_BB    POSRES_FC_BB    POSRES_FC_BB   
    7     1    POSRES_FC_BB    POSRES_FC_BB    POSRES_FC_BB   
    8     1    POSRES_FC_BB    POSRES_FC_BB    POSRES_FC_BB   
    9     1    POSRES_FC_BB    POSRES_FC_BB    POSRES_FC_BB   
   10     1    POSRES_FC_BB    POSRES_FC_BB    POSRES_FC_BB   
   11     1    POSRES_FC_BB    POSRES_FC_BB    POSRES_FC_BB   
   12     1    POSRES_FC_BB    POSRES_FC_BB    POSRES_FC_BB   
   13     1    POSRES_FC_BB    POSRES_FC_BB    POSRES_FC_BB   
   14     1    POSRES_FC_BB    POSRES_FC_BB    POSRES_FC_BB   
   15     1    POSRES_FC_BB    POSRES_FC_BB    POSRES_FC_BB   
   16     1    POSRES_FC_BB    POSRES_FC_BB    POSRES_FC_BB   
   17     1    POSRES_FC_BB    POSRES_FC_BB    POSRES_FC_BB   
   18     1    POSRES_FC_BB    POSRES_FC_BB    POSRES_FC_BB   
   19     1    POSRES_FC_BB    POSRES_FC_BB    POSRES_FC_BB   
   20     1    POSRES_FC_BB    POSRES_FC_BB    POSRES_FC_BB   
   21     1    POSRES_FC_BB    POSRES_FC_BB    POSRES_FC_BB   
   22     1    POSRES_FC_BB    POSRES_FC_BB    POSRES_FC_BB   
   23     1    POSRES_FC_BB    POSRES_FC_BB    POSRES_FC_BB   
   24     1    POSRES_FC_BB    POSRES_FC_BB    POSRES_FC_BB   
   25     1    POSRES_FC_BB    POSRES_FC_BB    POSRES_FC_BB   
   26     1    POSRES_FC_BB    POSRES_FC_BB    POSRES_FC_BB   
   27     1    POSRES_FC_BB    POSRES_FC_BB    POSRES_FC_BB   
   28     1    POSRES_FC_BB    POSRES_FC_BB    POSRES_FC_BB   
   29     1    POSRES_FC_BB    POSRES_FC_BB    POSRES_FC_BB   
   30     1    POSRES_FC_BB    POSRES_FC_BB    POSRES_FC_BB   
   31     1    POSRES_FC_BB    POSRES_FC_BB    POSRES_FC_BB   
   32     1    POSRES_FC_BB    POSRES_FC_BB    POSRES_FC_BB   
   33     1    POSRES_FC_BB    POSRES_FC_BB    POSRES_FC_BB   
   34     1    POSRES_FC_BB    POSRES_FC_BB    POSRES_FC_BB   
   35     1    POSRES_FC_BB    POSRES_FC_BB    POSRES_FC_BB   
   36     1    POSRES_FC_BB    POSRES_FC_BB    POSRES_FC_BB   
   37     1    POSRES_FC_BB    POSRES_FC_BB    POSRES_FC_BB   
   38     1    POSRES_FC_BB    POSRES_FC_BB    POSRES_FC_BB   
   39     1    POSRES_FC_BB    POSRES_FC_BB    POSRES_FC_BB   
   40     1    POSRES_FC_BB    POSRES_FC_BB    POSRES_FC_BB   
   41     1    POSRES_FC_BB    POSRES_FC_BB    POSRES_FC_BB   
   42     1    POSRES_FC_BB    POSRES_FC_BB    POSRES_FC_BB   
   43     1    POSRES_FC_BB    POSRES_FC_BB    POSRES_FC_BB   
   44     1    POSRES_FC_BB    POSRES_FC_BB    POSRES_FC_BB   
   45     1    POSRES_FC_BB    POSRES_FC_BB    POSRES_FC_BB   
   46     1    POSRES_FC_BB    POSRES_FC_BB    POSRES_FC_BB   
   47     1    POSRES_FC_BB    POSRES_FC_BB    POSRES_FC_BB   
   48     1    POSRES_FC_BB    POSRES_FC_BB    POSRES_FC_BB   
   49     1    POSRES_FC_BB    POSRES_FC_BB    POSRES_FC_BB   
   50     1    POSRES_FC_BB    POSRES_FC_BB    POSRES_FC_BB   
   51     1    POSRES_FC_BB    POSRES_FC_BB    POSRES_FC_BB   
   52     1    POSRES_FC_BB    POSRES_FC_BB    POSRES_FC_BB   
   53     1    POSRES_FC_BB    POSRES_FC_BB    POSRES_FC_BB   
   54     1    POSRES_FC_BB    POSRES_FC_BB    POSRES_FC_BB   
   55     1    POSRES_FC_BB    POSRES_FC_BB    POSRES_FC_BB   
   56     1    POSRES_FC_BB    POSRES_FC_BB    POSRES_FC_BB   
   57     1    POSRES_FC_BB    POSRES_FC_BB    POSRES_FC_BB   
   58     1    POSRES_FC_BB    POSRES_FC_BB    POSRES_FC_BB   
   59     1    POSRES_FC_BB    POSRES_FC_BB    POSRES_FC_BB   
   60     1    POSRES_FC_BB    POSRES_FC_BB    POSRES_FC_BB   
   61     1    POSRES_FC_BB    POSRES_FC_BB    POSRES_FC_BB   
   62     1    POSRES_FC_BB    POSRES_FC_BB    POSRES_FC_BB   
   63     1    POSRES_FC_BB    POSRES_FC_BB    POSRES_FC_BB   
   64     1    POSRES_FC_BB    POSRES_FC_BB    POSRES_FC_BB   
   65     1    POSRES_FC_BB    POSRES_FC_BB    POSRES_FC_BB   
   66     1    POSRES_FC_BB    POSRES_FC_BB    POSRES_FC_BB   
   67     1    POSRES_FC_BB    POSRES_FC_BB    POSRES_FC_BB   
   68     1    POSRES_FC_BB    POSRES_FC_BB    POSRES_FC_BB   
   69     1    POSRES_FC_BB    POSRES_FC_BB    POSRES_FC_BB   
   70     1    POSRES_FC_BB    POSRES_FC_BB    POSRES_FC_BB   
   71     1    POSRES_FC_BB    POSRES_FC_BB    POSRES_FC_BB   
   72     1    POSRES_FC_BB    POSRES_FC_BB    POSRES_FC_BB   
   73     1    POSRES_FC_BB    POSRES_FC_BB    POSRES_FC_BB   
   74     1    POSRES_FC_BB    POSRES_FC_BB    POSRES_FC_BB   
   75     1    POSRES_FC_BB    POSRES_FC_BB    POSRES_FC_BB   
   76     1    POSRES_FC_BB    POSRES_FC_BB    POSRES_FC_BB   
   77     1    POSRES_FC_BB    POSRES_FC_BB    POSRES_FC_BB   
   78     1    POSRES_FC_BB    POSRES_FC_BB    POSRES_FC_BB   
   79     1    POSRES_FC_BB    POSRES_FC_BB    POSRES_FC_BB   
   80     1    POSRES_FC_BB    POSRES_FC_BB    POSRES_FC_BB   
   81     1    POSRES_FC_BB    POSRES_FC_BB    POSRES_FC_BB   
   82     1    POSRES_FC_BB    POSRES_FC_BB    POSRES_FC_BB   
   83     1    POSRES_FC_BB    POSRES_FC_BB    POSRES_FC_BB   
   84     1    POSRES_FC_BB    POSRES_FC_BB    POSRES_FC_BB   
   85     1    POSRES_FC_BB    POSRES_FC_BB    POSRES_FC_BB   
   86     1    POSRES_FC_BB    POSRES_FC_BB    POSRES_FC_BB   
   87     1    POSRES_FC_BB    POSRES_FC_BB    POSRES_FC_BB   
   88     1    POSRES_FC_BB    POSRES_FC_BB    POSRES_FC_BB   
   89     1    POSRES_FC_BB    POSRES_FC_BB    POSRES_FC_BB   
   90     1    POSRES_FC_BB    POSRES_FC_BB    POSRES_FC_BB   
   91     1    POSRES_FC_BB    POSRES_FC_BB    POSRES_FC_BB   
   92     1    POSRES_FC_BB    POSRES_FC_BB    POSRES_FC_BB   
   93     1    POSRES_FC_BB    POSRES_FC_BB    POSRES_FC_BB   
   94     1    POSRES_FC_BB    POSRES_FC_BB    POSRES_FC_BB   
   95     1    POSRES_FC_BB    POSRES_FC_BB    POSRES_FC_BB   
   96     1    POSRES_FC_BB    POSRES_FC_BB    POSRES_FC_BB   
   97     1    POSRES_FC_BB    POSRES_FC_BB    POSRES_FC_BB   
   98     1    POSRES_FC_BB    POSRES_FC_BB    POSRES_FC_BB   
   99     1    POSRES_FC_BB    POSRES_FC_BB    POSRES_FC_BB   
  100     1    POSRES_FC_BB    POSRES_FC_BB    POSRES_FC_BB   
  101     1    POSRES_FC_BB    POSRES_FC_BB    POSRES_FC_BB   
  102     1    POSRES_FC_BB    POSRES_FC_BB    POSRES_FC_BB   
  103     1    POSRES_FC_BB    POSRES_FC_BB    POSRES_FC_BB   
  104     1    POSRES_FC_BB    POSRES_FC_BB    POSRES_FC_BB   
  105     1    POSRES_FC_BB    POSRES_FC_BB    POSRES_FC_BB   
  106     1    POSRES_FC_BB    POSRES_FC_BB    POSRES_FC_BB   
  107     1    POSRES_FC_BB    POSRES_FC_BB    POSRES_FC_BB   
  108     1    POSRES_FC_BB    POSRES_FC_BB    POSRES_FC_BB   
  109     1    POSRES_FC_BB    POSRES_FC_BB    POSRES_FC_BB   
  110     1    POSRES_FC_BB    POSRES_FC_BB    POSRES_FC_BB   
  111     1    POSRES_FC_BB    POSRES_FC_BB    POSRES_FC_BB   
  112     1    POSRES_FC_BB    POSRES_FC_BB    POSRES_FC_BB   
  113     1    POSRES_FC_BB    POSRES_FC_BB    POSRES_FC_BB   
  114     1    POSRES_FC_BB    POSRES_FC_BB    POSRES_FC_BB   
  115     1    POSRES_FC_BB    POSRES_FC_BB    POSRES_FC_BB   
  116     1    POSRES_FC_BB    POSRES_FC_BB    POSRES_FC_BB   
  117     1    POSRES_FC_BB    POSRES_FC_BB    POSRES_FC_BB   
  118     1    POSRES_FC_BB    POSRES_FC_BB    POSRES_FC_BB   
  119     1    POSRES_FC_BB    POSRES_FC_BB    POSRES_FC_BB   
  120     1    POSRES_FC_BB    POSRES_FC_BB    POSRES_FC_BB   
  121     1    POSRES_FC_BB    POSRES_FC_BB    POSRES_FC_BB   
  122     1    POSRES_FC_BB    POSRES_FC_BB    POSRES_FC_BB   
  123     1    POSRES_FC_BB    POSRES_FC_BB    POSRES_FC_BB   
  124     1    POSRES_FC_BB    POSRES_FC_BB    POSRES_FC_BB   
  125     1    POSRES_FC_BB    POSRES_FC_BB    POSRES_FC_BB   
  126     1    POSRES_FC_BB    POSRES_FC_BB    POSRES_FC_BB   
  127     1    POSRES_FC_BB    POSRES_FC_BB    POSRES_FC_BB   
  128     1    POSRES_FC_BB    POSRES_FC_BB    POSRES_FC_BB   
  129     1    POSRES_FC_BB    POSRES_FC_BB    POSRES_FC_BB   
  130     1    POSRES_FC_BB    POSRES_FC_BB    POSRES_FC_BB   
  131     1    POSRES_FC_BB    POSRES_FC_BB    POSRES_FC_BB   
  132     1    POSRES_FC_BB    POSRES_FC_BB    POSRES_FC_BB   
  133     1    POSRES_FC_BB    POSRES_FC_BB    POSRES_FC_BB   
  134     1    POSRES_FC_BB    POSRES_FC_BB    POSRES_FC_BB   
  135     1    POSRES_FC_BB    POSRES_FC_BB    POSRES_FC_BB   
  136     1    POSRES_FC_BB    POSRES_FC_BB    POSRES_FC_BB   
  137     1    POSRES_FC_BB    POSRES_FC_BB    POSRES_FC_BB   
  138     1    POSRES_FC_BB    POSRES_FC_BB    POSRES_FC_BB   
  139     1    POSRES_FC_BB    POSRES_FC_BB    POSRES_FC_BB   
  140     1    POSRES_FC_BB    POSRES_FC_BB    POSRES_FC_BB   
  141     1    POSRES_FC_BB    POSRES_FC_BB    POSRES_FC_BB   
  142     1    POSRES_FC_BB    POSRES_FC_BB    POSRES_FC_BB   
  143     1    POSRES_FC_BB    POSRES_FC_BB    POSRES_FC_BB   
  144     1    POSRES_FC_BB    POSRES_FC_BB    POSRES_FC_BB   
  145     1    POSRES_FC_BB    POSRES_FC_BB    POSRES_FC_BB   
  146     1    POSRES_FC_BB    POSRES_FC_BB    POSRES_FC_BB   
  147     1    POSRES_FC_BB    POSRES_FC_BB    POSRES_FC_BB   
  148     1    POSRES_FC_BB    POSRES_FC_BB    POSRES_FC_BB   
  149     1    POSRES_FC_BB    POSRES_FC_BB    POSRES_FC_BB   
  150     1    POSRES_FC_BB    POSRES_FC_BB    POSRES_FC_BB   
  151     1    POSRES_FC_BB    POSRES_FC_BB    POSRES_FC_BB   
  152     1    POSRES_FC_BB    POSRES_FC_BB    POSRES_FC_BB   
  153     1    POSRES_FC_BB    POSRES_FC_BB    POSRES_FC_BB   
  154     1    POSRES_FC_BB    POSRES_FC_BB    POSRES_FC_BB   
  155     1    POSRES_FC_BB    POSRES_FC_BB    POSRES_FC_BB   
  156     1    POSRES_FC_BB    POSRES_FC_BB    POSRES_FC_BB   
  157     1    POSRES_FC_BB    POSRES_FC_BB    POSRES_FC_BB   
  158     1    POSRES_FC_BB    POSRES_FC_BB    POSRES_FC_BB   
  159     1    POSRES_FC_BB    POSRES_FC_BB    POSRES_FC_BB   
  160     1    POSRES_FC_BB    POSRES_FC_BB    POSRES_FC_BB   
  161     1    POSRES_FC_BB    POSRES_FC_BB    POSRES_FC_BB   
  162     1    POSRES_FC_BB    POSRES_FC_BB    POSRES_FC_BB   
  163     1    POSRES_FC_BB    POSRES_FC_BB    POSRES_FC_BB   
  164     1    POSRES_FC_BB    POSRES_FC_BB    POSRES_FC_BB   
  165     1    POSRES_FC_BB    POSRES_FC_BB    POSRES_FC_BB   
  166     1    POSRES_FC_BB    POSRES_FC_BB    POSRES_FC_BB   
  167     1    POSRES_FC_BB    POSRES_FC_BB    POSRES_FC_BB   
  168     1    POSRES_FC_BB    POSRES_FC_BB    POSRES_FC_BB   
  169     1    POSRES_FC_BB    POSRES_FC_BB    POSRES_FC_BB   
  170     1    POSRES_FC_BB    POSRES_FC_BB    POSRES_FC_BB   
  171     1    POSRES_FC_BB    POSRES_FC_BB    POSRES_FC_BB   
  172     1    POSRES_FC_BB    POSRES_FC_BB    POSRES_FC_BB   
  173     1    POSRES_FC_BB    POSRES_FC_BB    POSRES_FC_BB   
  174     1    POSRES_FC_BB    POSRES_FC_BB    POSRES_FC_BB   
  175     1    POSRES_FC_BB    POSRES_FC_BB    POSRES_FC_BB   
  176     1    POSRES_FC_BB    POSRES_FC_BB    POSRES_FC_BB   
  177     1    POSRES_FC_BB    POSRES_FC_BB    POSRES_FC_BB   
  178     1    POSRES_FC_BB    POSRES_FC_BB    POSRES_FC_BB   
  179     1    POSRES_FC_BB    POSRES_FC_BB    POSRES_FC_BB   
  180     1    POSRES_FC_BB    POSRES_FC_BB    POSRES_FC_BB   
  181     1    POSRES_FC_BB    POSRES_FC_BB    POSRES_FC_BB   
  182     1    POSRES_FC_BB    POSRES_FC_BB    POSRES_FC_BB   
  183     1    POSRES_FC_BB    POSRES_FC_BB    POSRES_FC_BB   
  184     1    POSRES_FC_BB    POSRES_FC_BB    POSRES_FC_BB   
  185     1    POSRES_FC_BB    POSRES_FC_BB    POSRES_FC_BB   
  186     1    POSRES_FC_BB    POSRES_FC_BB    POSRES_FC_BB   
  187     1    POSRES_FC_BB    POSRES_FC_BB    POSRES_FC_BB   
  188     1    POSRES_FC_BB    POSRES_FC_BB    POSRES_FC_BB   
  189     1    POSRES_FC_BB    POSRES_FC_BB    POSRES_FC_BB   
  190     1    POSRES_FC_BB    POSRES_FC_BB    POSRES_FC_BB   
  191     1    POSRES_FC_BB    POSRES_FC_BB    POSRES_FC_BB   
  192     1    POSRES_FC_BB    POSRES_FC_BB    POSRES_FC_BB   
  193     1    POSRES_FC_BB    POSRES_FC_BB    POSRES_FC_BB   
  194     1    POSRES_FC_BB    POSRES_FC_BB    POSRES_FC_BB   
  195     1    POSRES_FC_BB    POSRES_FC_BB    POSRES_FC_BB   
  196     1    POSRES_FC_BB    POSRES_FC_BB    POSRES_FC_BB   
  197     1    POSRES_FC_BB    POSRES_FC_BB    POSRES_FC_BB   
  198     1    POSRES_FC_BB    POSRES_FC_BB    POSRES_FC_BB   
  199     1    POSRES_FC_BB    POSRES_FC_BB    POSRES_FC_BB   
  200     1    POSRES_FC_BB    POSRES_FC_BB    POSRES_FC_BB   
  201     1    POSRES_FC_BB    POSRES_FC_BB    POSRES_FC_BB   
  202     1    POSRES_FC_BB    POSRES_FC_BB    POSRES_FC_BB   
  203     1    POSRES_FC_BB    POSRES_FC_BB    POSRES_FC_BB   
  204     1    POSRES_FC_BB    POSRES_FC_BB    POSRES_FC_BB   
  205     1    POSRES_FC_BB    POSRES_FC_BB    POSRES_FC_BB   
  206     1    POSRES_FC_BB    POSRES_FC_BB    POSRES_FC_BB   
  207     1    POSRES_FC_BB    POSRES_FC_BB    POSRES_FC_BB   
  208     1    POSRES_FC_BB    POSRES_FC_BB    POSRES_FC_BB   
  209     1    POSRES_FC_BB    POSRES_FC_BB    POSRES_FC_BB   
  210     1    POSRES_FC_BB    POSRES_FC_BB    POSRES_FC_BB   
  211     1    POSRES_FC_BB    POSRES_FC_BB    POSRES_FC_BB   
  212     1    POSRES_FC_BB    POSRES_FC_BB    POSRES_FC_BB   
  213     1    POSRES_FC_BB    POSRES_FC_BB    POSRES_FC_BB   
  214     1    POSRES_FC_BB    POSRES_FC_BB    POSRES_FC_BB   
  215     1    POSRES_FC_BB    POSRES_FC_BB    POSRES_FC_BB   
  216     1    POSRES_FC_BB    POSRES_FC_BB    POSRES_FC_BB   
  217     1    POSRES_FC_BB    POSRES_FC_BB    POSRES_FC_BB   
  218     1    POSRES_FC_BB    POSRES_FC_BB    POSRES_FC_BB   
  219     1    POSRES_FC_BB    POSRES_FC_BB    POSRES_FC_BB   
  220     1    POSRES_FC_BB    POSRES_FC_BB    POSRES_FC_BB   
  221     1    POSRES_FC_BB    POSRES_FC_BB    POSRES_FC_BB   
  222     1    POSRES_FC_BB    POSRES_FC_BB    POSRES_FC_BB   
  223     1    POSRES_FC_BB    POSRES_FC_BB    POSRES_FC_BB   
  224     1    POSRES_FC_BB    POSRES_FC_BB    POSRES_FC_BB   
  225     1    POSRES_FC_BB    POSRES_FC_BB    POSRES_FC_BB   
  226     1    POSRES_FC_BB    POSRES_FC_BB    POSRES_FC_BB   
  227     1    POSRES_FC_BB    POSRES_FC_BB    POSRES_FC_BB   
  228     1    POSRES_FC_BB    POSRES_FC_BB    POSRES_FC_BB   
  229     1    POSRES_FC_BB    POSRES_FC_BB    POSRES_FC_BB   
  230     1    POSRES_FC_BB    POSRES_FC_BB    POSRES_FC_BB   
  231     1    POSRES_FC_BB    POSRES_FC_BB    POSRES_FC_BB   
  232     1    POSRES_FC_BB    POSRES_FC_BB    POSRES_FC_BB   
  233     1    POSRES_FC_BB    POSRES_FC_BB    POSRES_FC_BB   
  234     1    POSRES_FC_BB    POSRES_FC_BB    POSRES_FC_BB   
  235     1    POSRES_FC_BB    POSRES_FC_BB    POSRES_FC_BB   
  236     1    POSRES_FC_BB    POSRES_FC_BB    POSRES_FC_BB   
  237     1    POSRES_FC_BB    POSRES_FC_BB    POSRES_FC_BB   
  238     1    POSRES_FC_BB    POSRES_FC_BB    POSRES_FC_BB   
  239     1    POSRES_FC_BB    POSRES_FC_BB    POSRES_FC_BB   
  240     1    POSRES_FC_BB    POSRES_FC_BB    POSRES_FC_BB   
  241     1    POSRES_FC_BB    POSRES_FC_BB    POSRES_FC_BB   
  242     1    POSRES_FC_BB    POSRES_FC_BB    POSRES_FC_BB   
  243     1    POSRES_FC_BB    POSRES_FC_BB    POSRES_FC_BB   
  244     1    POSRES_FC_BB    POSRES_FC_BB    POSRES_FC_BB   
  245     1    POSRES_FC_BB    POSRES_FC_BB    POSRES_FC_BB   
  246     1    POSRES_FC_BB    POSRES_FC_BB    POSRES_FC_BB   
  247     1    POSRES_FC_BB    POSRES_FC_BB    POSRES_FC_BB   
  248     1    POSRES_FC_BB    POSRES_FC_BB    POSRES_FC_BB   
  249     1    POSRES_FC_BB    POSRES_FC_BB    POSRES_FC_BB   
  250     1    POSRES_FC_BB    POSRES_FC_BB    POSRES_FC_BB   
  251     1    POSRES_FC_BB    POSRES_FC_BB    POSRES_FC_BB   
  252     1    POSRES_FC_BB    POSRES_FC_BB    POSRES_FC_BB   
  253     1    POSRES_FC_BB    POSRES_FC_BB    POSRES_FC_BB   
  254     1    POSRES_FC_BB    POSRES_FC_BB    POSRES_FC_BB   
  255     1    POSRES_FC_BB    POSRES_FC_BB    POSRES_FC_BB   
  256     1    POSRES_FC_BB    POSRES_FC_BB    POSRES_FC_BB   
  257     1    POSRES_FC_BB    POSRES_FC_BB    POSRES_FC_BB   
  258     1    POSRES_FC_BB    POSRES_FC_BB    POSRES_FC_BB   
  259     1    POSRES_FC_BB    POSRES_FC_BB    POSRES_FC_BB   
  260     1    POSRES_FC_BB    POSRES_FC_BB    POSRES_FC_BB   
  261     1    POSRES_FC_BB    POSRES_FC_BB    POSRES_FC_BB   
  262     1    POSRES_FC_BB    POSRES_FC_BB    POSRES_FC_BB   
  263     1    POSRES_FC_BB    POSRES_FC_BB    POSRES_FC_BB   
  264     1    POSRES_FC_BB    POSRES_FC_BB    POSRES_FC_BB   
  265     1    POSRES_FC_BB    POSRES_FC_BB    POSRES_FC_BB   
  266     1    POSRES_FC_BB    POSRES_FC_BB    POSRES_FC_BB   
  267     1    POSRES_FC_BB    POSRES_FC_BB    POSRES_FC_BB   
  268     1    POSRES_FC_BB    POSRES_FC_BB    POSRES_FC_BB   
  269     1    POSRES_FC_BB    POSRES_FC_BB    POSRES_FC_BB   
  270     1    POSRES_FC_BB    POSRES_FC_BB    POSRES_FC_BB   
  271     1    POSRES_FC_BB    POSRES_FC_BB    POSRES_FC_BB   
  272     1    POSRES_FC_BB    POSRES_FC_BB    POSRES_FC_BB   
  273     1    POSRES_FC_BB    POSRES_FC_BB    POSRES_FC_BB   
  274     1    POSRES_FC_BB    POSRES_FC_BB    POSRES_FC_BB   
  275     1    POSRES_FC_BB    POSRES_FC_BB    POSRES_FC_BB   
  276     1    POSRES_FC_BB    POSRES_FC_BB    POSRES_FC_BB   
  277     1    POSRES_FC_BB    POSRES_FC_BB    POSRES_FC_BB   
  278     1    POSRES_FC_BB    POSRES_FC_BB    POSRES_FC_BB   
  279     1    POSRES_FC_BB    POSRES_FC_BB    POSRES_FC_BB   
  280     1    POSRES_FC_BB    POSRES_FC_BB    POSRES_FC_BB   
  281     1    POSRES_FC_BB    POSRES_FC_BB    POSRES_FC_BB   
  282     1    POSRES_FC_BB    POSRES_FC_BB    POSRES_FC_BB   
  283     1    POSRES_FC_BB    POSRES_FC_BB    POSRES_FC_BB   
  284     1    POSRES_FC_BB    POSRES_FC_BB    POSRES_FC_BB   
  285     1    POSRES_FC_BB    POSRES_FC_BB    POSRES_FC_BB   
  286     1    POSRES_FC_BB    POSRES_FC_BB    POSRES_FC_BB   
  287     1    POSRES_FC_BB    POSRES_FC_BB    POSRES_FC_BB   
  288     1    POSRES_FC_BB    POSRES_FC_BB    POSRES_FC_BB   
  289     1    POSRES_FC_BB    POSRES_FC_BB    POSRES_FC_BB   
  290     1    POSRES_FC_BB    POSRES_FC_BB    POSRES_FC_BB   
  291     1    POSRES_FC_BB    POSRES_FC_BB    POSRES_FC_BB   
  292     1    POSRES_FC_BB    POSRES_FC_BB    POSRES_FC_BB   
  293     1    POSRES_FC_BB    POSRES_FC_BB    POSRES_FC_BB   
  294     1    POSRES_FC_BB    POSRES_FC_BB    POSRES_FC_BB   
  295     1    POSRES_FC_BB    POSRES_FC_BB    POSRES_FC_BB   
  296     1    POSRES_FC_BB    POSRES_FC_BB    POSRES_FC_BB   
  297     1    POSRES_FC_BB    POSRES_FC_BB    POSRES_FC_BB   
  298     1    POSRES_FC_BB    POSRES_FC_BB    POSRES_FC_BB   
  299     1    POSRES_FC_BB    POSRES_FC_BB    POSRES_FC_BB   
  300     1    POSRES_FC_BB    POSRES_FC_BB    POSRES_FC_BB   
  301     1    POSRES_FC_BB    POSRES_FC_BB    POSRES_FC_BB   
  302     1    POSRES_FC_BB    POSRES_FC_BB    POSRES_FC_BB   
  303     1    POSRES_FC_BB    POSRES_FC_BB    POSRES_FC_BB   
  304     1    POSRES_FC_BB    POSRES_FC_BB    POSRES_FC_BB   
  305     1    POSRES_FC_BB    POSRES_FC_BB    POSRES_FC_BB   
  306     1    POSRES_FC_BB    POSRES_FC_BB    POSRES_FC_BB   
  307     1    POSRES_FC_BB    POSRES_FC_BB    POSRES_FC_BB   
  308     1    POSRES_FC_BB    POSRES_FC_BB    POSRES_FC_BB   
  309     1    POSRES_FC_BB    POSRES_FC_BB    POSRES_FC_BB   
  310     1    POSRES_FC_BB    POSRES_FC_BB    POSRES_FC_BB   
  311     1    POSRES_FC_BB    POSRES_FC_BB    POSRES_FC_BB   
  312     1    POSRES_FC_BB    POSRES_FC_BB    POSRES_FC_BB   
  313     1    POSRES_FC_BB    POSRES_FC_BB    POSRES_FC_BB   
  314     1    POSRES_FC_BB    POSRES_FC_BB    POSRES_FC_BB   
  315     1    POSRES_FC_BB    POSRES_FC_BB    POSRES_FC_BB   
  316     1    POSRES_FC_BB    POSRES_FC_BB    POSRES_FC_BB   
  317     1    POSRES_FC_BB    POSRES_FC_BB    POSRES_FC_BB   
  318     1    POSRES_FC_BB    POSRES_FC_BB    POSRES_FC_BB   
  319     1    POSRES_FC_BB    POSRES_FC_BB    POSRES_FC_BB   
  320     1    POSRES_FC_BB    POSRES_FC_BB    POSRES_FC_BB   
  321     1    POSRES_FC_BB    POSRES_FC_BB    POSRES_FC_BB   
  322     1    POSRES_FC_BB    POSRES_FC_BB    POSRES_FC_BB   
  323     1    POSRES_FC_BB    POSRES_FC_BB    POSRES_FC_BB   
  324     1    POSRES_FC_BB    POSRES_FC_BB    POSRES_FC_BB   
  325     1    POSRES_FC_BB    POSRES_FC_BB    POSRES_FC_BB   
  326     1    POSRES_FC_BB    POSRES_FC_BB    POSRES_FC_BB   
  327     1    POSRES_FC_BB    POSRES_FC_BB    POSRES_FC_BB   
  328     1    POSRES_FC_BB    POSRES_FC_BB    POSRES_FC_BB   
  329     1    POSRES_FC_BB    POSRES_FC_BB    POSRES_FC_BB   
  330     1    POSRES_FC_BB    POSRES_FC_BB    POSRES_FC_BB   
  331     1    POSRES_FC_BB    POSRES_FC_BB    POSRES_FC_BB   
  332     1    POSRES_FC_BB    POSRES_FC_BB    POSRES_FC_BB   
  333     1    POSRES_FC_BB    POSRES_FC_BB    POSRES_FC_BB   
  334     1    POSRES_FC_BB    POSRES_FC_BB    POSRES_FC_BB   
  335     1    POSRES_FC_BB    POSRES_FC_BB    POSRES_FC_BB   
  336     1    POSRES_FC_BB    POSRES_FC_BB    POSRES_FC_BB   
  337     1    POSRES_FC_BB    POSRES_FC_BB    POSRES_FC_BB   
  338     1    POSRES_FC_BB    POSRES_FC_BB    POSRES_FC_BB   
  339     1    POSRES_FC_BB    POSRES_FC_BB    POSRES_FC_BB   
  340     1    POSRES_FC_BB    POSRES_FC_BB    POSRES_FC_BB   
  341     1    POSRES_FC_BB    POSRES_FC_BB    POSRES_FC_BB   
  342     1    POSRES_FC_BB    POSRES_FC_BB    POSRES_FC_BB   
  343     1    POSRES_FC_BB    POSRES_FC_BB    POSRES_FC_BB   
  344     1    POSRES_FC_BB    POSRES_FC_BB    POSRES_FC_BB   
  345     1    POSRES_FC_BB    POSRES_FC_BB    POSRES_FC_BB   
  346     1    POSRES_FC_BB    POSRES_FC_BB    POSRES_FC_BB   
  347     1    POSRES_FC_BB    POSRES_FC_BB    POSRES_FC_BB   
  348     1    POSRES_FC_BB    POSRES_FC_BB    POSRES_FC_BB   
  349     1    POSRES_FC_BB    POSRES_FC_BB    POSRES_FC_BB   
  350     1    POSRES_FC_BB    POSRES_FC_BB    POSRES_FC_BB   
  351     1    POSRES_FC_BB    POSRES_FC_BB    POSRES_FC_BB   
  352     1    POSRES_FC_BB    POSRES_FC_BB    POSRES_FC_BB   
  353     1    POSRES_FC_BB    POSRES_FC_BB    POSRES_FC_BB   
  354     1    POSRES_FC_BB    POSRES_FC_BB    POSRES_FC_BB   
  355     1    POSRES_FC_BB    POSRES_FC_BB    POSRES_FC_BB   
  356     1    POSRES_FC_BB    POSRES_FC_BB    POSRES_FC_BB   
  357     1    POSRES_FC_BB    POSRES_FC_BB    POSRES_FC_BB   
  358     1    POSRES_FC_BB    POSRES_FC_BB    POSRES_FC_BB   
  359     1    POSRES_FC_BB    POSRES_FC_BB    POSRES_FC_BB   
  360     1    POSRES_FC_BB    POSRES_FC_BB    POSRES_FC_BB   
  361     1    POSRES_FC_BB    POSRES_FC_BB    POSRES_FC_BB   
  362     1    POSRES_FC_BB    POSRES_FC_BB    POSRES_FC_BB   
  363     1    POSRES_FC_BB    POSRES_FC_BB    POSRES_FC_BB   
  364     1    POSRES_FC_BB    POSRES_FC_BB    POSRES_FC_BB   
  365     1    POSRES_FC_BB    POSRES_FC_BB    POSRES_FC_BB   
  366     1    POSRES_FC_BB    POSRES_FC_BB    POSRES_FC_BB   
  367     1    POSRES_FC_BB    POSRES_FC_BB    POSRES_FC_BB   
  368     1    POSRES_FC_BB    POSRES_FC_BB    POSRES_FC_BB   
  369     1    POSRES_FC_BB    POSRES_FC_BB    POSRES_FC_BB   
  370     1    POSRES_FC_BB    POSRES_FC_BB    POSRES_FC_BB   
  371     1    POSRES_FC_BB    POSRES_FC_BB    POSRES_FC_BB   
  372     1    POSRES_FC_BB    POSRES_FC_BB    POSRES_FC_BB   
  373     1    POSRES_FC_BB    POSRES_FC_BB    POSRES_FC_BB   
  374     1    POSRES_FC_BB    POSRES_FC_BB    POSRES_FC_BB   
  375     1    POSRES_FC_BB    POSRES_FC_BB    POSRES_FC_BB   
  376     1    POSRES_FC_BB    POSRES_FC_BB    POSRES_FC_BB   
  377     1    POSRES_FC_BB    POSRES_FC_BB    POSRES_FC_BB   
  378     1    POSRES_FC_BB    POSRES_FC_BB    POSRES_FC_BB   
  379     1    POSRES_FC_BB    POSRES_FC_BB    POSRES_FC_BB   
  380     1    POSRES_FC_BB    POSRES_FC_BB    POSRES_FC_BB   
  381     1    POSRES_FC_BB    POSRES_FC_BB    POSRES_FC_BB   
  382     1    POSRES_FC_BB    POSRES_FC_BB    POSRES_FC_BB   
  383     1    POSRES_FC_BB    POSRES_FC_BB    POSRES_FC_BB   
  384     1    POSRES_FC_BB    POSRES_FC_BB    POSRES_FC_BB   
  385     1    POSRES_FC_BB    POSRES_FC_BB    POSRES_FC_BB   
  386     1    POSRES_FC_BB    POSRES_FC_BB    POSRES_FC_BB   
  387     1    POSRES_FC_BB    POSRES_FC_BB    POSRES_FC_BB   
  388     1    POSRES_FC_BB    POSRES_FC_BB    POSRES_FC_BB   
  389     1    POSRES_FC_BB    POSRES_FC_BB    POSRES_FC_BB   
  390     1    POSRES_FC_BB    POSRES_FC_BB    POSRES_FC_BB   
  391     1    POSRES_FC_BB    POSRES_FC_BB    POSRES_FC_BB   
  392     1    POSRES_FC_BB    POSRES_FC_BB    POSRES_FC_BB   
  393     1    POSRES_FC_BB    POSRES_FC_BB    POSRES_FC_BB   
  394     1    POSRES_FC_BB    POSRES_FC_BB    POSRES_FC_BB   
  395     1    POSRES_FC_BB    POSRES_FC_BB    POSRES_FC_BB   
  396     1    POSRES_FC_BB    POSRES_FC_BB    POSRES_FC_BB   
  397     1    POSRES_FC_BB    POSRES_FC_BB    POSRES_FC_BB   
  398     1    POSRES_FC_BB    POSRES_FC_BB    POSRES_FC_BB   
  399     1    POSRES_FC_BB    POSRES_FC_BB    POSRES_FC_BB   
  400     1    POSRES_FC_BB    POSRES_FC_BB    POSRES_FC_BB   
  401     1    POSRES_FC_BB    POSRES_FC_BB    POSRES_FC_BB   
  402     1    POSRES_FC_BB    POSRES_FC_BB    POSRES_FC_BB   
  403     1    POSRES_FC_BB    POSRES_FC_BB    POSRES_FC_BB   
  404     1    POSRES_FC_BB    POSRES_FC_BB    POSRES_FC_BB   
  405     1    POSRES_FC_BB    POSRES_FC_BB    POSRES_FC_BB   
  406     1    POSRES_FC_BB    POSRES_FC_BB    POSRES_FC_BB   
  407     1    POSRES_FC_BB    POSRES_FC_BB    POSRES_FC_BB   
  408     1    POSRES_FC_BB    POSRES_FC_BB    POSRES_FC_BB   
  409     1    POSRES_FC_BB    POSRES_FC_BB    POSRES_FC_BB   
  410     1    POSRES_FC_BB    POSRES_FC_BB    POSRES_FC_BB   
  411     1    POSRES_FC_BB    POSRES_FC_BB    POSRES_FC_BB   
  412     1    POSRES_FC_BB    POSRES_FC_BB    POSRES_FC_BB   
  413     1    POSRES_FC_BB    POSRES_FC_BB    POSRES_FC_BB   
  414     1    POSRES_FC_BB    POSRES_FC_BB    POSRES_FC_BB   
  415     1    POSRES_FC_BB    POSRES_FC_BB    POSRES_FC_BB   
  416     1    POSRES_FC_BB    POSRES_FC_BB    POSRES_FC_BB   
  417     1    POSRES_FC_BB    POSRES_FC_BB    POSRES_FC_BB   
  418     1    POSRES_FC_BB    POSRES_FC_BB    POSRES_FC_BB   
  419     1    POSRES_FC_BB    POSRES_FC_BB    POSRES_FC_BB   
  420     1    POSRES_FC_BB    POSRES_FC_BB    POSRES_FC_BB   
  421     1    POSRES_FC_BB    POSRES_FC_BB    POSRES_FC_BB   
  422     1    POSRES_FC_BB    POSRES_FC_BB    POSRES_FC_BB   
  423     1    POSRES_FC_BB    POSRES_FC_BB    POSRES_FC_BB   
  424     1    POSRES_FC_BB    POSRES_FC_BB    POSRES_FC_BB   
  425     1    POSRES_FC_BB    POSRES_FC_BB    POSRES_FC_BB   
  426     1    POSRES_FC_BB    POSRES_FC_BB    POSRES_FC_BB   
  427     1    POSRES_FC_BB    POSRES_FC_BB    POSRES_FC_BB   
  428     1    POSRES_FC_BB    POSRES_FC_BB    POSRES_FC_BB   
  429     1    POSRES_FC_BB    POSRES_FC_BB    POSRES_FC_BB   
  430     1    POSRES_FC_BB    POSRES_FC_BB    POSRES_FC_BB   
  431     1    POSRES_FC_BB    POSRES_FC_BB    POSRES_FC_BB   
  432     1    POSRES_FC_BB    POSRES_FC_BB    POSRES_FC_BB   
  433     1    POSRES_FC_BB    POSRES_FC_BB    POSRES_FC_BB   
  434     1    POSRES_FC_BB    POSRES_FC_BB    POSRES_FC_BB   
  435     1    POSRES_FC_BB    POSRES_FC_BB    POSRES_FC_BB   
  436     1    POSRES_FC_BB    POSRES_FC_BB    POSRES_FC_BB   
  437     1    POSRES_FC_BB    POSRES_FC_BB    POSRES_FC_BB   
  438     1    POSRES_FC_BB    POSRES_FC_BB    POSRES_FC_BB   
  439     1    POSRES_FC_BB    POSRES_FC_BB    POSRES_FC_BB   
  440     1    POSRES_FC_BB    POSRES_FC_BB    POSRES_FC_BB   
  441     1    POSRES_FC_BB    POSRES_FC_BB    POSRES_FC_BB   
  442     1    POSRES_FC_BB    POSRES_FC_BB    POSRES_FC_BB   
  443     1    POSRES_FC_BB    POSRES_FC_BB    POSRES_FC_BB   
  444     1    POSRES_FC_BB    POSRES_FC_BB    POSRES_FC_BB   
  445     1    POSRES_FC_BB    POSRES_FC_BB    POSRES_FC_BB   
  446     1    POSRES_FC_BB    POSRES_FC_BB    POSRES_FC_BB   
  447     1    POSRES_FC_BB    POSRES_FC_BB    POSRES_FC_BB   
  448     1    POSRES_FC_BB    POSRES_FC_BB    POSRES_FC_BB   
  449     1    POSRES_FC_BB    POSRES_FC_BB    POSRES_FC_BB   
  450     1    POSRES_FC_BB    POSRES_FC_BB    POSRES_FC_BB   
  451     1    POSRES_FC_BB    POSRES_FC_BB    POSRES_FC_BB   
  452     1    POSRES_FC_BB    POSRES_FC_BB    POSRES_FC_BB   
  453     1    POSRES_FC_BB    POSRES_FC_BB    POSRES_FC_BB   
  454     1    POSRES_FC_BB    POSRES_FC_BB    POSRES_FC_BB   
  455     1    POSRES_FC_BB    POSRES_FC_BB    POSRES_FC_BB   
  456     1    POSRES_FC_BB    POSRES_FC_BB    POSRES_FC_BB   
  457     1    POSRES_FC_BB    POSRES_FC_BB    POSRES_FC_BB   
  458     1    POSRES_FC_BB    POSRES_FC_BB    POSRES_FC_BB   
  459     1    POSRES_FC_BB    POSRES_FC_BB    POSRES_FC_BB   
  460     1    POSRES_FC_BB    POSRES_FC_BB    POSRES_FC_BB   
  461     1    POSRES_FC_BB    POSRES_FC_BB    POSRES_FC_BB   
  462     1    POSRES_FC_BB    POSRES_FC_BB    POSRES_FC_BB   
  463     1    POSRES_FC_BB    POSRES_FC_BB    POSRES_FC_BB   
  464     1    POSRES_FC_BB    POSRES_FC_BB    POSRES_FC_BB   
  465     1    POSRES_FC_BB    POSRES_FC_BB    POSRES_FC_BB   
  466     1    POSRES_FC_BB    POSRES_FC_BB    POSRES_FC_BB   
  467     1    POSRES_FC_BB    POSRES_FC_BB    POSRES_FC_BB   
  468     1    POSRES_FC_BB    POSRES_FC_BB    POSRES_FC_BB   
  469     1    POSRES_FC_BB    POSRES_FC_BB    POSRES_FC_BB   
  470     1    POSRES_FC_BB    POSRES_FC_BB    POSRES_FC_BB   
  471     1    POSRES_FC_BB    POSRES_FC_BB    POSRES_FC_BB   
  472     1    POSRES_FC_BB    POSRES_FC_BB    POSRES_FC_BB   
  473     1    POSRES_FC_BB    POSRES_FC_BB    POSRES_FC_BB   
  474     1    POSRES_FC_BB    POSRES_FC_BB    POSRES_FC_BB   
  475     1    POSRES_FC_BB    POSRES_FC_BB    POSRES_FC_BB   
  476     1    POSRES_FC_BB    POSRES_FC_BB    POSRES_FC_BB   
  477     1    POSRES_FC_BB    POSRES_FC_BB    POSRES_FC_BB   
  478     1    POSRES_FC_BB    POSRES_FC_BB    POSRES_FC_BB   
  479     1    POSRES_FC_BB    POSRES_FC_BB    POSRES_FC_BB   
  480     1    POSRES_FC_BB    POSRES_FC_BB    POSRES_FC_BB   
  481     1    POSRES_FC_BB    POSRES_FC_BB    POSRES_FC_BB   
  482     1    POSRES_FC_BB    POSRES_FC_BB    POSRES_FC_BB   
  483     1    POSRES_FC_BB    POSRES_FC_BB    POSRES_FC_BB   
  484     1    POSRES_FC_BB    POSRES_FC_BB    POSRES_FC_BB   
  485     1    POSRES_FC_BB    POSRES_FC_BB    POSRES_FC_BB   
  486     1    POSRES_FC_BB    POSRES_FC_BB    POSRES_FC_BB   
  487     1    POSRES_FC_BB    POSRES_FC_BB    POSRES_FC_BB   
  488     1    POSRES_FC_BB    POSRES_FC_BB    POSRES_FC_BB   
  489     1    POSRES_FC_BB    POSRES_FC_BB    POSRES_FC_BB   
  490     1    POSRES_FC_BB    POSRES_FC_BB    POSRES_FC_BB   
  491     1    POSRES_FC_BB    POSRES_FC_BB    POSRES_FC_BB   
  492     1    POSRES_FC_BB    POSRES_FC_BB    POSRES_FC_BB   
  493     1    POSRES_FC_BB    POSRES_FC_BB    POSRES_FC_BB   
  494     1    POSRES_FC_BB    POSRES_FC_BB    POSRES_FC_BB   
  495     1    POSRES_FC_BB    POSRES_FC_BB    POSRES_FC_BB   
  496     1    POSRES_FC_BB    POSRES_FC_BB    POSRES_FC_BB   
  497     1    POSRES_FC_BB    POSRES_FC_BB    POSRES_FC_BB   
  498     1    POSRES_FC_BB    POSRES_FC_BB    POSRES_FC_BB   
  499     1    POSRES_FC_BB    POSRES_FC_BB    POSRES_FC_BB   
  500     1    POSRES_FC_BB    POSRES_FC_BB    POSRES_FC_BB   
  501     1    POSRES_FC_BB    POSRES_FC_BB    POSRES_FC_BB   
  502     1    POSRES_FC_BB    POSRES_FC_BB    POSRES_FC_BB   
  503     1    POSRES_FC_BB    POSRES_FC_BB    POSRES_FC_BB   
  504     1    POSRES_FC_BB    POSRES_FC_BB    POSRES_FC_BB   
  505     1    POSRES_FC_BB    POSRES_FC_BB    POSRES_FC_BB   
  506     1    POSRES_FC_BB    POSRES_FC_BB    POSRES_FC_BB   
  507     1    POSRES_FC_BB    POSRES_FC_BB    POSRES_FC_BB   
  508     1    POSRES_FC_BB    POSRES_FC_BB    POSRES_FC_BB   
  509     1    POSRES_FC_BB    POSRES_FC_BB    POSRES_FC_BB   
  510     1    POSRES_FC_BB    POSRES_FC_BB    POSRES_FC_BB   
  511     1    POSRES_FC_BB    POSRES_FC_BB    POSRES_FC_BB   
  512     1    POSRES_FC_BB    POSRES_FC_BB    POSRES_FC_BB   
  513     1    POSRES_FC_BB    POSRES_FC_BB    POSRES_FC_BB   
  514     1    POSRES_FC_BB    POSRES_FC_BB    POSRES_FC_BB   
  515     1    POSRES_FC_BB    POSRES_FC_BB    POSRES_FC_BB   
  516     1    POSRES_FC_BB    POSRES_FC_BB    POSRES_FC_BB   
  517     1    POSRES_FC_BB    POSRES_FC_BB    POSRES_FC_BB   
  518     1    POSRES_FC_BB    POSRES_FC_BB    POSRES_FC_BB   
  519     1    POSRES_FC_BB    POSRES_FC_BB    POSRES_FC_BB   
  520     1    POSRES_FC_BB    POSRES_FC_BB    POSRES_FC_BB   
  521     1    POSRES_FC_BB    POSRES_FC_BB    POSRES_FC_BB   
  522     1    POSRES_FC_BB    POSRES_FC_BB    POSRES_FC_BB   
  523     1    POSRES_FC_BB    POSRES_FC_BB    POSRES_FC_BB   
  524     1    POSRES_FC_BB    POSRES_FC_BB    POSRES_FC_BB   
  525     1    POSRES_FC_BB    POSRES_FC_BB    POSRES_FC_BB   
  526     1    POSRES_FC_BB    POSRES_FC_BB    POSRES_FC_BB   
  527     1    POSRES_FC_BB    POSRES_FC_BB    POSRES_FC_BB   
  528     1    POSRES_FC_BB    POSRES_FC_BB    POSRES_FC_BB   
  529     1    POSRES_FC_BB    POSRES_FC_BB    POSRES_FC_BB   
  530     1    POSRES_FC_BB    POSRES_FC_BB    POSRES_FC_BB   
  531     1    POSRES_FC_BB    POSRES_FC_BB    POSRES_FC_BB   
  532     1    POSRES_FC_BB    POSRES_FC_BB    POSRES_FC_BB   
  533     1    POSRES_FC_BB    POSRES_FC_BB    POSRES_FC_BB   
  534     1    POSRES_FC_BB    POSRES_FC_BB    POSRES_FC_BB   
  535     1    POSRES_FC_BB    POSRES_FC_BB    POSRES_FC_BB   
  536     1    POSRES_FC_BB    POSRES_FC_BB    POSRES_FC_BB   
  537     1    POSRES_FC_BB    POSRES_FC_BB    POSRES_FC_BB   
  538     1    POSRES_FC_BB    POSRES_FC_BB    POSRES_FC_BB   
  539     1    POSRES_FC_BB    POSRES_FC_BB    POSRES_FC_BB   
  540     1    POSRES_FC_BB    POSRES_FC_BB    POSRES_FC_BB   
  541     1    POSRES_FC_BB    POSRES_FC_BB    POSRES_FC_BB   
  542     1    POSRES_FC_BB    POSRES_FC_BB    POSRES_FC_BB   
  543     1    POSRES_FC_BB    POSRES_FC_BB    POSRES_FC_BB   
  544     1    POSRES_FC_BB    POSRES_FC_BB    POSRES_FC_BB   
  545     1    POSRES_FC_BB    POSRES_FC_BB    POSRES_FC_BB   
  546     1    POSRES_FC_BB    POSRES_FC_BB    POSRES_FC_BB   
  547     1    POSRES_FC_BB    POSRES_FC_BB    POSRES_FC_BB   
  548     1    POSRES_FC_BB    POSRES_FC_BB    POSRES_FC_BB   
  549     1    POSRES_FC_BB    POSRES_FC_BB    POSRES_FC_BB   
  550     1    POSRES_FC_BB    POSRES_FC_BB    POSRES_FC_BB   
  551     1    POSRES_FC_BB    POSRES_FC_BB    POSRES_FC_BB   
  552     1    POSRES_FC_BB    POSRES_FC_BB    POSRES_FC_BB   
  553     1    POSRES_FC_BB    POSRES_FC_BB    POSRES_FC_BB   
  554     1    POSRES_FC_BB    POSRES_FC_BB    POSRES_FC_BB   
  555     1    POSRES_FC_BB    POSRES_FC_BB    POSRES_FC_BB   
  556     1    POSRES_FC_BB    POSRES_FC_BB    POSRES_FC_BB   
  557     1    POSRES_FC_BB    POSRES_FC_BB    POSRES_FC_BB   
  558     1    POSRES_FC_BB    POSRES_FC_BB    POSRES_FC_BB   
  559     1    POSRES_FC_BB    POSRES_FC_BB    POSRES_FC_BB   
  560     1    POSRES_FC_BB    POSRES_FC_BB    POSRES_FC_BB   
  561     1    POSRES_FC_BB    POSRES_FC_BB    POSRES_FC_BB   
  562     1    POSRES_FC_BB    POSRES_FC_BB    POSRES_FC_BB   
  563     1    POSRES_FC_BB    POSRES_FC_BB    POSRES_FC_BB   
  564     1    POSRES_FC_BB    POSRES_FC_BB    POSRES_FC_BB   
  565     1    POSRES_FC_BB    POSRES_FC_BB    POSRES_FC_BB   
  566     1    POSRES_FC_BB    POSRES_FC_BB    POSRES_FC_BB   
  567     1    POSRES_FC_BB    POSRES_FC_BB    POSRES_FC_BB   
  568     1    POSRES_FC_BB    POSRES_FC_BB    POSRES_FC_BB   
  569     1    POSRES_FC_BB    POSRES_FC_BB    POSRES_FC_BB   
  570     1    POSRES_FC_BB    POSRES_FC_BB    POSRES_FC_BB   
  571     1    POSRES_FC_BB    POSRES_FC_BB    POSRES_FC_BB   
  572     1    POSRES_FC_BB    POSRES_FC_BB    POSRES_FC_BB   
  573     1    POSRES_FC_BB    POSRES_FC_BB    POSRES_FC_BB   
  574     1    POSRES_FC_BB    POSRES_FC_BB    POSRES_FC_BB   
  575     1    POSRES_FC_BB    POSRES_FC_BB    POSRES_FC_BB   
  576     1    POSRES_FC_BB    POSRES_FC_BB    POSRES_FC_BB   
  577     1    POSRES_FC_BB    POSRES_FC_BB    POSRES_FC_BB   
  578     1    POSRES_FC_BB    POSRES_FC_BB    POSRES_FC_BB   
  579     1    POSRES_FC_BB    POSRES_FC_BB    POSRES_FC_BB   
  580     1    POSRES_FC_BB    POSRES_FC_BB    POSRES_FC_BB   
  581     1    POSRES_FC_BB    POSRES_FC_BB    POSRES_FC_BB   
  582     1    POSRES_FC_BB    POSRES_FC_BB    POSRES_FC_BB   
  583     1    POSRES_FC_BB    POSRES_FC_BB    POSRES_FC_BB   
  584     1    POSRES_FC_BB    POSRES_FC_BB    POSRES_FC_BB   
  585     1    POSRES_FC_BB    POSRES_FC_BB    POSRES_FC_BB   
  586     1    POSRES_FC_BB    POSRES_FC_BB    POSRES_FC_BB   
  587     1    POSRES_FC_BB    POSRES_FC_BB    POSRES_FC_BB   
  588     1    POSRES_FC_BB    POSRES_FC_BB    POSRES_FC_BB   
  589     1    POSRES_FC_BB    POSRES_FC_BB    POSRES_FC_BB   
  590     1    POSRES_FC_BB    POSRES_FC_BB    POSRES_FC_BB   
  591     1    POSRES_FC_BB    POSRES_FC_BB    POSRES_FC_BB   
  592     1    POSRES_FC_BB    POSRES_FC_BB    POSRES_FC_BB   
  593     1    POSRES_FC_BB    POSRES_FC_BB    POSRES_FC_BB   
  594     1    POSRES_FC_BB    POSRES_FC_BB    POSRES_FC_BB   
  595     1    POSRES_FC_BB    POSRES_FC_BB    POSRES_FC_BB   
  596     1    POSRES_FC_BB    POSRES_FC_BB    POSRES_FC_BB   
  597     1    POSRES_FC_BB    POSRES_FC_BB    POSRES_FC_BB   
  598     1    POSRES_FC_BB    POSRES_FC_BB    POSRES_FC_BB   
  599     1    POSRES_FC_BB    POSRES_FC_BB    POSRES_FC_BB   
  600     1    POSRES_FC_BB    POSRES_FC_BB    POSRES_FC_BB   
  601     1    POSRES_FC_BB    POSRES_FC_BB    POSRES_FC_BB   
  602     1    POSRES_FC_BB    POSRES_FC_BB    POSRES_FC_BB   
  603     1    POSRES_FC_BB    POSRES_FC_BB    POSRES_FC_BB   
  604     1    POSRES_FC_BB    POSRES_FC_BB    POSRES_FC_BB   
  605     1    POSRES_FC_BB    POSRES_FC_BB    POSRES_FC_BB   
  606     1    POSRES_FC_BB    POSRES_FC_BB    POSRES_FC_BB   
  607     1    POSRES_FC_BB    POSRES_FC_BB    POSRES_FC_BB   
  608     1    POSRES_FC_BB    POSRES_FC_BB    POSRES_FC_BB   
  609     1    POSRES_FC_BB    POSRES_FC_BB    POSRES_FC_BB   
  610     1    POSRES_FC_BB    POSRES_FC_BB    POSRES_FC_BB   
  611     1    POSRES_FC_BB    POSRES_FC_BB    POSRES_FC_BB   
  612     1    POSRES_FC_BB    POSRES_FC_BB    POSRES_FC_BB   
  613     1    POSRES_FC_BB    POSRES_FC_BB    POSRES_FC_BB   
  614     1    POSRES_FC_BB    POSRES_FC_BB    POSRES_FC_BB   
  615     1    POSRES_FC_BB    POSRES_FC_BB    POSRES_FC_BB   
  616     1    POSRES_FC_BB    POSRES_FC_BB    POSRES_FC_BB   
  617     1    POSRES_FC_BB    POSRES_FC_BB    POSRES_FC_BB   
  618     1    POSRES_FC_BB    POSRES_FC_BB    POSRES_FC_BB   
  619     1    POSRES_FC_BB    POSRES_FC_BB    POSRES_FC_BB   
  620     1    POSRES_FC_BB    POSRES_FC_BB    POSRES_FC_BB   
  621     1    POSRES_FC_BB    POSRES_FC_BB    POSRES_FC_BB   
  622     1    POSRES_FC_BB    POSRES_FC_BB    POSRES_FC_BB   
  623     1    POSRES_FC_BB    POSRES_FC_BB    POSRES_FC_BB   
  624     1    POSRES_FC_BB    POSRES_FC_BB    POSRES_FC_BB   
  625     1    POSRES_FC_BB    POSRES_FC_BB    POSRES_FC_BB   
  626     1    POSRES_FC_BB    POSRES_FC_BB    POSRES_FC_BB   
  627     1    POSRES_FC_BB    POSRES_FC_BB    POSRES_FC_BB   
  628     1    POSRES_FC_BB    POSRES_FC_BB    POSRES_FC_BB   
  629     1    POSRES_FC_BB    POSRES_FC_BB    POSRES_FC_BB   
  630     1    POSRES_FC_BB    POSRES_FC_BB    POSRES_FC_BB   
  631     1    POSRES_FC_BB    POSRES_FC_BB    POSRES_FC_BB   
  632     1    POSRES_FC_BB    POSRES_FC_BB    POSRES_FC_BB   
  633     1    POSRES_FC_BB    POSRES_FC_BB    POSRES_FC_BB   
  634     1    POSRES_FC_BB    POSRES_FC_BB    POSRES_FC_BB   
  635     1    POSRES_FC_BB    POSRES_FC_BB    POSRES_FC_BB   
  636     1    POSRES_FC_BB    POSRES_FC_BB    POSRES_FC_BB   
  637     1    POSRES_FC_BB    POSRES_FC_BB    POSRES_FC_BB   
  638     1    POSRES_FC_BB    POSRES_FC_BB    POSRES_FC_BB   
  639     1    POSRES_FC_BB    POSRES_FC_BB    POSRES_FC_BB   
  640     1    POSRES_FC_BB    POSRES_FC_BB    POSRES_FC_BB   
  641     1    POSRES_FC_BB    POSRES_FC_BB    POSRES_FC_BB   
  642     1    POSRES_FC_BB    POSRES_FC_BB    POSRES_FC_BB   
  643     1    POSRES_FC_BB    POSRES_FC_BB    POSRES_FC_BB   
  644     1    POSRES_FC_BB    POSRES_FC_BB    POSRES_FC_BB   
  645     1    POSRES_FC_BB    POSRES_FC_BB    POSRES_FC_BB   
  646     1    POSRES_FC_BB    POSRES_FC_BB    POSRES_FC_BB   
  647     1    POSRES_FC_BB    POSRES_FC_BB    POSRES_FC_BB   
  648     1    POSRES_FC_BB    POSRES_FC_BB    POSRES_FC_BB   
  649     1    POSRES_FC_BB    POSRES_FC_BB    POSRES_FC_BB   
  650     1    POSRES_FC_BB    POSRES_FC_BB    POSRES_FC_BB   
  651     1    POSRES_FC_BB    POSRES_FC_BB    POSRES_FC_BB   
  652     1    POSRES_FC_BB    POSRES_FC_BB    POSRES_FC_BB   
  653     1    POSRES_FC_BB    POSRES_FC_BB    POSRES_FC_BB   
  654     1    POSRES_FC_BB    POSRES_FC_BB    POSRES_FC_BB   
  655     1    POSRES_FC_BB    POSRES_FC_BB    POSRES_FC_BB   
  656     1    POSRES_FC_BB    POSRES_FC_BB    POSRES_FC_BB   
  657     1    POSRES_FC_BB    POSRES_FC_BB    POSRES_FC_BB   
  658     1    POSRES_FC_BB    POSRES_FC_BB    POSRES_FC_BB   
  659     1    POSRES_FC_BB    POSRES_FC_BB    POSRES_FC_BB   
  660     1    POSRES_FC_BB    POSRES_FC_BB    POSRES_FC_BB   
  661     1    POSRES_FC_BB    POSRES_FC_BB    POSRES_FC_BB   
  662     1    POSRES_FC_BB    POSRES_FC_BB    POSRES_FC_BB   
  663     1    POSRES_FC_BB    POSRES_FC_BB    POSRES_FC_BB   
  664     1    POSRES_FC_BB    POSRES_FC_BB    POSRES_FC_BB   
  665     1    POSRES_FC_BB    POSRES_FC_BB    POSRES_FC_BB   
  666     1    POSRES_FC_BB    POSRES_FC_BB    POSRES_FC_BB   
  667     1    POSRES_FC_BB    POSRES_FC_BB    POSRES_FC_BB   
  668     1    POSRES_FC_BB    POSRES_FC_BB    POSRES_FC_BB   
  669     1    POSRES_FC_BB    POSRES_FC_BB    POSRES_FC_BB   
  670     1    POSRES_FC_BB    POSRES_FC_BB    POSRES_FC_BB   
  671     1    POSRES_FC_BB    POSRES_FC_BB    POSRES_FC_BB   
  672     1    POSRES_FC_BB    POSRES_FC_BB    POSRES_FC_BB   
  673     1    POSRES_FC_BB    POSRES_FC_BB    POSRES_FC_BB   
  674     1    POSRES_FC_BB    POSRES_FC_BB    POSRES_FC_BB   
  675     1    POSRES_FC_BB    POSRES_FC_BB    POSRES_FC_BB   
  676     1    POSRES_FC_BB    POSRES_FC_BB    POSRES_FC_BB   
  677     1    POSRES_FC_BB    POSRES_FC_BB    POSRES_FC_BB   
  678     1    POSRES_FC_BB    POSRES_FC_BB    POSRES_FC_BB   
  679     1    POSRES_FC_BB    POSRES_FC_BB    POSRES_FC_BB   
  680     1    POSRES_FC_BB    POSRES_FC_BB    POSRES_FC_BB   
  681     1    POSRES_FC_BB    POSRES_FC_BB    POSRES_FC_BB   
  682     1    POSRES_FC_BB    POSRES_FC_BB    POSRES_FC_BB   
  683     1    POSRES_FC_BB    POSRES_FC_BB    POSRES_FC_BB   
  684     1    POSRES_FC_BB    POSRES_FC_BB    POSRES_FC_BB   
  685     1    POSRES_FC_BB    POSRES_FC_BB    POSRES_FC_BB   
  686     1    POSRES_FC_BB    POSRES_FC_BB    POSRES_FC_BB   
  687     1    POSRES_FC_BB    POSRES_FC_BB    POSRES_FC_BB   
  688     1    POSRES_FC_BB    POSRES_FC_BB    POSRES_FC_BB   
  689     1    POSRES_FC_BB    POSRES_FC_BB    POSRES_FC_BB   
  690     1    POSRES_FC_BB    POSRES_FC_BB    POSRES_FC_BB   
  691     1    POSRES_FC_BB    POSRES_FC_BB    POSRES_FC_BB   
  692     1    POSRES_FC_BB    POSRES_FC_BB    POSRES_FC_BB   
  693     1    POSRES_FC_BB    POSRES_FC_BB    POSRES_FC_BB   
  694     1    POSRES_FC_BB    POSRES_FC_BB    POSRES_FC_BB   
  695     1    POSRES_FC_BB    POSRES_FC_BB    POSRES_FC_BB   
  696     1    POSRES_FC_BB    POSRES_FC_BB    POSRES_FC_BB   
  697     1    POSRES_FC_BB    POSRES_FC_BB    POSRES_FC_BB   
  698     1    POSRES_FC_BB    POSRES_FC_BB    POSRES_FC_BB   
  699     1    POSRES_FC_BB    POSRES_FC_BB    POSRES_FC_BB   
  700     1    POSRES_FC_BB    POSRES_FC_BB    POSRES_FC_BB   
  701     1    POSRES_FC_BB    POSRES_FC_BB    POSRES_FC_BB   
  702     1    POSRES_FC_BB    POSRES_FC_BB    POSRES_FC_BB   
  703     1    POSRES_FC_BB    POSRES_FC_BB    POSRES_FC_BB   
  704     1    POSRES_FC_BB    POSRES_FC_BB    POSRES_FC_BB   
  705     1    POSRES_FC_BB    POSRES_FC_BB    POSRES_FC_BB   
  706     1    POSRES_FC_BB    POSRES_FC_BB    POSRES_FC_BB   
  707     1    POSRES_FC_BB    POSRES_FC_BB    POSRES_FC_BB   
  708     1    POSRES_FC_BB    POSRES_FC_BB    POSRES_FC_BB   
  709     1    POSRES_FC_BB    POSRES_FC_BB    POSRES_FC_BB   
  710     1    POSRES_FC_BB    POSRES_FC_BB    POSRES_FC_BB   
  711     1    POSRES_FC_BB    POSRES_FC_BB    POSRES_FC_BB   
  712     1    POSRES_FC_BB    POSRES_FC_BB    POSRES_FC_BB   
  713     1    POSRES_FC_BB    POSRES_FC_BB    POSRES_FC_BB   
  714     1    POSRES_FC_BB    POSRES_FC_BB    POSRES_FC_BB   
  715     1    POSRES_FC_BB    POSRES_FC_BB    POSRES_FC_BB   
  716     1    POSRES_FC_BB    POSRES_FC_BB    POSRES_FC_BB   
  717     1    POSRES_FC_BB    POSRES_FC_BB    POSRES_FC_BB   
  718     1    POSRES_FC_BB    POSRES_FC_BB    POSRES_FC_BB   
  719     1    POSRES_FC_BB    POSRES_FC_BB    POSRES_FC_BB   
  720     1    POSRES_FC_BB    POSRES_FC_BB    POSRES_FC_BB   
  721     1    POSRES_FC_BB    POSRES_FC_BB    POSRES_FC_BB   
  722     1    POSRES_FC_BB    POSRES_FC_BB    POSRES_FC_BB   
  723     1    POSRES_FC_BB    POSRES_FC_BB    POSRES_FC_BB   
  724     1    POSRES_FC_BB    POSRES_FC_BB    POSRES_FC_BB   
  725     1    POSRES_FC_BB    POSRES_FC_BB    POSRES_FC_BB   
  726     1    POSRES_FC_BB    POSRES_FC_BB    POSRES_FC_BB   
  727     1    POSRES_FC_BB    POSRES_FC_BB    POSRES_FC_BB   
  728     1    POSRES_FC_BB    POSRES_FC_BB    POSRES_FC_BB   
  729     1    POSRES_FC_BB    POSRES_FC_BB    POSRES_FC_BB   
  730     1    POSRES_FC_BB    POSRES_FC_BB    POSRES_FC_BB   
  731     1    POSRES_FC_BB    POSRES_FC_BB    POSRES_FC_BB   
  732     1    POSRES_FC_BB    POSRES_FC_BB    POSRES_FC_BB   
  733     1    POSRES_FC_BB    POSRES_FC_BB    POSRES_FC_BB   
  734     1    POSRES_FC_BB    POSRES_FC_BB    POSRES_FC_BB   
  735     1    POSRES_FC_BB    POSRES_FC_BB    POSRES_FC_BB   
  736     1    POSRES_FC_BB    POSRES_FC_BB    POSRES_FC_BB   
  737     1    POSRES_FC_BB    POSRES_FC_BB    POSRES_FC_BB   
  738     1    POSRES_FC_BB    POSRES_FC_BB    POSRES_FC_BB   
  739     1    POSRES_FC_BB    POSRES_FC_BB    POSRES_FC_BB   
  740     1    POSRES_FC_BB    POSRES_FC_BB    POSRES_FC_BB   
  741     1    POSRES_FC_BB    POSRES_FC_BB    POSRES_FC_BB   
  742     1    POSRES_FC_BB    POSRES_FC_BB    POSRES_FC_BB   
  743     1    POSRES_FC_BB    POSRES_FC_BB    POSRES_FC_BB   
  744     1    POSRES_FC_BB    POSRES_FC_BB    POSRES_FC_BB   
  745     1    POSRES_FC_BB    POSRES_FC_BB    POSRES_FC_BB   
  746     1    POSRES_FC_BB    POSRES_FC_BB    POSRES_FC_BB   
  747     1    POSRES_FC_BB    POSRES_FC_BB    POSRES_FC_BB   
  748     1    POSRES_FC_BB    POSRES_FC_BB    POSRES_FC_BB   
  749     1    POSRES_FC_BB    POSRES_FC_BB    POSRES_FC_BB   
  750     1    POSRES_FC_BB    POSRES_FC_BB    POSRES_FC_BB   
  751     1    POSRES_FC_BB    POSRES_FC_BB    POSRES_FC_BB   
  752     1    POSRES_FC_BB    POSRES_FC_BB    POSRES_FC_BB   
  753     1    POSRES_FC_BB    POSRES_FC_BB    POSRES_FC_BB   
  754     1    POSRES_FC_BB    POSRES_FC_BB    POSRES_FC_BB   
  755     1    POSRES_FC_BB    POSRES_FC_BB    POSRES_FC_BB   
  756     1    POSRES_FC_BB    POSRES_FC_BB    POSRES_FC_BB   
  757     1    POSRES_FC_BB    POSRES_FC_BB    POSRES_FC_BB   
  758     1    POSRES_FC_BB    POSRES_FC_BB    POSRES_FC_BB   
  759     1    POSRES_FC_BB    POSRES_FC_BB    POSRES_FC_BB   
  760     1    POSRES_FC_BB    POSRES_FC_BB    POSRES_FC_BB   
  761     1    POSRES_FC_BB    POSRES_FC_BB    POSRES_FC_BB   
  762     1    POSRES_FC_BB    POSRES_FC_BB    POSRES_FC_BB   
  763     1    POSRES_FC_BB    POSRES_FC_BB    POSRES_FC_BB   
  764     1    POSRES_FC_BB    POSRES_FC_BB    POSRES_FC_BB   
  765     1    POSRES_FC_BB    POSRES_FC_BB    POSRES_FC_BB   
  766     1    POSRES_FC_BB    POSRES_FC_BB    POSRES_FC_BB   
  767     1    POSRES_FC_BB    POSRES_FC_BB    POSRES_FC_BB   
  768     1    POSRES_FC_BB    POSRES_FC_BB    POSRES_FC_BB   
  769     1    POSRES_FC_BB    POSRES_FC_BB    POSRES_FC_BB   
  770     1    POSRES_FC_BB    POSRES_FC_BB    POSRES_FC_BB   
  771     1    POSRES_FC_BB    POSRES_FC_BB    POSRES_FC_BB   
  772     1    POSRES_FC_BB    POSRES_FC_BB    POSRES_FC_BB   
  773     1    POSRES_FC_BB    POSRES_FC_BB    POSRES_FC_BB   
  774     1    POSRES_FC_BB    POSRES_FC_BB    POSRES_FC_BB   
  775     1    POSRES_FC_BB    POSRES_FC_BB    POSRES_FC_BB   
  776     1    POSRES_FC_BB    POSRES_FC_BB    POSRES_FC_BB   
  777     1    POSRES_FC_BB    POSRES_FC_BB    POSRES_FC_BB   
  778     1    POSRES_FC_BB    POSRES_FC_BB    POSRES_FC_BB   
  779     1    POSRES_FC_BB    POSRES_FC_BB    POSRES_FC_BB   
  780     1    POSRES_FC_BB    POSRES_FC_BB    POSRES_FC_BB   
  781     1    POSRES_FC_BB    POSRES_FC_BB    POSRES_FC_BB   
  782     1    POSRES_FC_BB    POSRES_FC_BB    POSRES_FC_BB   
  783     1    POSRES_FC_BB    POSRES_FC_BB    POSRES_FC_BB   
  784     1    POSRES_FC_BB    POSRES_FC_BB    POSRES_FC_BB   
  785     1    POSRES_FC_BB    POSRES_FC_BB    POSRES_FC_BB   
  786     1    POSRES_FC_BB    POSRES_FC_BB    POSRES_FC_BB   
  787     1    POSRES_FC_BB    POSRES_FC_BB    POSRES_FC_BB   
  788     1    POSRES_FC_BB    POSRES_FC_BB    POSRES_FC_BB   
  789     1    POSRES_FC_BB    POSRES_FC_BB    POSRES_FC_BB   
  790     1    POSRES_FC_BB    POSRES_FC_BB    POSRES_FC_BB   
  791     1    POSRES_FC_BB    POSRES_FC_BB    POSRES_FC_BB   
  792     1    POSRES_FC_BB    POSRES_FC_BB    POSRES_FC_BB   
  793     1    POSRES_FC_BB    POSRES_FC_BB    POSRES_FC_BB   
  794     1    POSRES_FC_BB    POSRES_FC_BB    POSRES_FC_BB   
  795     1    POSRES_FC_BB    POSRES_FC_BB    POSRES_FC_BB   
  796     1    POSRES_FC_BB    POSRES_FC_BB    POSRES_FC_BB   
  797     1    POSRES_FC_BB    POSRES_FC_BB    POSRES_FC_BB   
  798     1    POSRES_FC_BB    POSRES_FC_BB    POSRES_FC_BB   
  799     1    POSRES_FC_BB    POSRES_FC_BB    POSRES_FC_BB   
  800     1    POSRES_FC_BB    POSRES_FC_BB    POSRES_FC_BB   
  801     1    POSRES_FC_BB    POSRES_FC_BB    POSRES_FC_BB   
  802     1    POSRES_FC_BB    POSRES_FC_BB    POSRES_FC_BB   
  803     1    POSRES_FC_BB    POSRES_FC_BB    POSRES_FC_BB   
  804     1    POSRES_FC_BB    POSRES_FC_BB    POSRES_FC_BB   
  805     1    POSRES_FC_BB    POSRES_FC_BB    POSRES_FC_BB   
  806     1    POSRES_FC_BB    POSRES_FC_BB    POSRES_FC_BB   
  807     1    POSRES_FC_BB    POSRES_FC_BB    POSRES_FC_BB   
  808     1    POSRES_FC_BB    POSRES_FC_BB    POSRES_FC_BB   
  809     1    POSRES_FC_BB    POSRES_FC_BB    POSRES_FC_BB   
  810     1    POSRES_FC_BB    POSRES_FC_BB    POSRES_FC_BB   
  811     1    POSRES_FC_BB    POSRES_FC_BB    POSRES_FC_BB   
  812     1    POSRES_FC_BB    POSRES_FC_BB    POSRES_FC_BB   
  813     1    POSRES_FC_BB    POSRES_FC_BB    POSRES_FC_BB   
  814     1    POSRES_FC_BB    POSRES_FC_BB    POSRES_FC_BB   
  815     1    POSRES_FC_BB    POSRES_FC_BB    POSRES_FC_BB   
  816     1    POSRES_FC_BB    POSRES_FC_BB    POSRES_FC_BB   
  817     1    POSRES_FC_BB    POSRES_FC_BB    POSRES_FC_BB   
  818     1    POSRES_FC_BB    POSRES_FC_BB    POSRES_FC_BB   
  819     1    POSRES_FC_BB    POSRES_FC_BB    POSRES_FC_BB   
  820     1    POSRES_FC_BB    POSRES_FC_BB    POSRES_FC_BB   
  821     1    POSRES_FC_BB    POSRES_FC_BB    POSRES_FC_BB   
  822     1    POSRES_FC_BB    POSRES_FC_BB    POSRES_FC_BB   
  823     1    POSRES_FC_BB    POSRES_FC_BB    POSRES_FC_BB   
  824     1    POSRES_FC_BB    POSRES_FC_BB    POSRES_FC_BB   
  825     1    POSRES_FC_BB    POSRES_FC_BB    POSRES_FC_BB   
  826     1    POSRES_FC_BB    POSRES_FC_BB    POSRES_FC_BB   
  827     1    POSRES_FC_BB    POSRES_FC_BB    POSRES_FC_BB   
  828     1    POSRES_FC_BB    POSRES_FC_BB    POSRES_FC_BB   
  829     1    POSRES_FC_BB    POSRES_FC_BB    POSRES_FC_BB   
  830     1    POSRES_FC_BB    POSRES_FC_BB    POSRES_FC_BB   
  831     1    POSRES_FC_BB    POSRES_FC_BB    POSRES_FC_BB   
  832     1    POSRES_FC_BB    POSRES_FC_BB    POSRES_FC_BB   
  833     1    POSRES_FC_BB    POSRES_FC_BB    POSRES_FC_BB   
  834     1    POSRES_FC_BB    POSRES_FC_BB    POSRES_FC_BB   
  835     1    POSRES_FC_BB    POSRES_FC_BB    POSRES_FC_BB   
  836     1    POSRES_FC_BB    POSRES_FC_BB    POSRES_FC_BB   
  837     1    POSRES_FC_BB    POSRES_FC_BB    POSRES_FC_BB   
  838     1    POSRES_FC_BB    POSRES_FC_BB    POSRES_FC_BB   
  839     1    POSRES_FC_BB    POSRES_FC_BB    POSRES_FC_BB   
  840     1    POSRES_FC_BB    POSRES_FC_BB    POSRES_FC_BB   
  841     1    POSRES_FC_BB    POSRES_FC_BB    POSRES_FC_BB   
  842     1    POSRES_FC_BB    POSRES_FC_BB    POSRES_FC_BB   
  843     1    POSRES_FC_BB    POSRES_FC_BB    POSRES_FC_BB   
  844     1    POSRES_FC_BB    POSRES_FC_BB    POSRES_FC_BB   
  845     1    POSRES_FC_BB    POSRES_FC_BB    POSRES_FC_BB   
  846     1    POSRES_FC_BB    POSRES_FC_BB    POSRES_FC_BB   
  847     1    POSRES_FC_BB    POSRES_FC_BB    POSRES_FC_BB   
  848     1    POSRES_FC_BB    POSRES_FC_BB    POSRES_FC_BB   
  849     1    POSRES_FC_BB    POSRES_FC_BB    POSRES_FC_BB   
  850     1    POSRES_FC_BB    POSRES_FC_BB    POSRES_FC_BB   
  851     1    POSRES_FC_BB    POSRES_FC_BB    POSRES_FC_BB   
  852     1    POSRES_FC_BB    POSRES_FC_BB    POSRES_FC_BB   
  853     1    POSRES_FC_BB    POSRES_FC_BB    POSRES_FC_BB   
  854     1    POSRES_FC_BB    POSRES_FC_BB    POSRES_FC_BB   
  855     1    POSRES_FC_BB    POSRES_FC_BB    POSRES_FC_BB   
  856     1    POSRES_FC_BB    POSRES_FC_BB    POSRES_FC_BB   
  857     1    POSRES_FC_BB    POSRES_FC_BB    POSRES_FC_BB   
  858     1    POSRES_FC_BB    POSRES_FC_BB    POSRES_FC_BB   
  859     1    POSRES_FC_BB    POSRES_FC_BB    POSRES_FC_BB   
  860     1    POSRES_FC_BB    POSRES_FC_BB    POSRES_FC_BB   
  861     1    POSRES_FC_BB    POSRES_FC_BB    POSRES_FC_BB   
  862     1    POSRES_FC_BB    POSRES_FC_BB    POSRES_FC_BB   
  863     1    POSRES_FC_BB    POSRES_FC_BB    POSRES_FC_BB   
  864     1    POSRES_FC_BB    POSRES_FC_BB    POSRES_FC_BB   
  865     1    POSRES_FC_BB    POSRES_FC_BB    POSRES_FC_BB   
  866     1    POSRES_FC_BB    POSRES_FC_BB    POSRES_FC_BB   
  867     1    POSRES_FC_BB    POSRES_FC_BB    POSRES_FC_BB   
  868     1    POSRES_FC_BB    POSRES_FC_BB    POSRES_FC_BB   
  869     1    POSRES_FC_BB    POSRES_FC_BB    POSRES_FC_BB   
  870     1    POSRES_FC_BB    POSRES_FC_BB    POSRES_FC_BB   
  871     1    POSRES_FC_BB    POSRES_FC_BB    POSRES_FC_BB   
  872     1    POSRES_FC_BB    POSRES_FC_BB    POSRES_FC_BB   
  873     1    POSRES_FC_BB    POSRES_FC_BB    POSRES_FC_BB   
  874     1    POSRES_FC_BB    POSRES_FC_BB    POSRES_FC_BB   
  875     1    POSRES_FC_BB    POSRES_FC_BB    POSRES_FC_BB   
  876     1    POSRES_FC_BB    POSRES_FC_BB    POSRES_FC_BB   
  877     1    POSRES_FC_BB    POSRES_FC_BB    POSRES_FC_BB   
  878     1    POSRES_FC_BB    POSRES_FC_BB    POSRES_FC_BB   
  879     1    POSRES_FC_BB    POSRES_FC_BB    POSRES_FC_BB   
  880     1    POSRES_FC_BB    POSRES_FC_BB    POSRES_FC_BB   
  881     1    POSRES_FC_BB    POSRES_FC_BB    POSRES_FC_BB   
  882     1    POSRES_FC_BB    POSRES_FC_BB    POSRES_FC_BB   
  883     1    POSRES_FC_BB    POSRES_FC_BB    POSRES_FC_BB   
  884     1    POSRES_FC_BB    POSRES_FC_BB    POSRES_FC_BB   
  885     1    POSRES_FC_BB    POSRES_FC_BB    POSRES_FC_BB   
  886     1    POSRES_FC_BB    POSRES_FC_BB    POSRES_FC_BB   
  887     1    POSRES_FC_BB    POSRES_FC_BB    POSRES_FC_BB   
  888     1    POSRES_FC_BB    POSRES_FC_BB    POSRES_FC_BB   
  889     1    POSRES_FC_BB    POSRES_FC_BB    POSRES_FC_BB   
  890     1    POSRES_FC_BB    POSRES_FC_BB    POSRES_FC_BB   
  891     1    POSRES_FC_BB    POSRES_FC_BB    POSRES_FC_BB   
  892     1    POSRES_FC_BB    POSRES_FC_BB    POSRES_FC_BB   
  893     1    POSRES_FC_BB    POSRES_FC_BB    POSRES_FC_BB   
  894     1    POSRES_FC_BB    POSRES_FC_BB    POSRES_FC_BB   
  895     1    POSRES_FC_BB    POSRES_FC_BB    POSRES_FC_BB   
  896     1    POSRES_FC_BB    POSRES_FC_BB    POSRES_FC_BB   
  897     1    POSRES_FC_BB    POSRES_FC_BB    POSRES_FC_BB   
  898     1    POSRES_FC_BB    POSRES_FC_BB    POSRES_FC_BB   
  899     1    POSRES_FC_BB    POSRES_FC_BB    POSRES_FC_BB   
  900     1    POSRES_FC_BB    POSRES_FC_BB    POSRES_FC_BB   
  901     1    POSRES_FC_BB    POSRES_FC_BB    POSRES_FC_BB   
  902     1    POSRES_FC_BB    POSRES_FC_BB    POSRES_FC_BB   
  903     1    POSRES_FC_BB    POSRES_FC_BB    POSRES_FC_BB   
  904     1    POSRES_FC_BB    POSRES_FC_BB    POSRES_FC_BB   
  905     1    POSRES_FC_BB    POSRES_FC_BB    POSRES_FC_BB   
  906     1    POSRES_FC_BB    POSRES_FC_BB    POSRES_FC_BB   
  907     1    POSRES_FC_BB    POSRES_FC_BB    POSRES_FC_BB   
  908     1    POSRES_FC_BB    POSRES_FC_BB    POSRES_FC_BB   
  909     1    POSRES_FC_BB    POSRES_FC_BB    POSRES_FC_BB   
  910     1    POSRES_FC_BB    POSRES_FC_BB    POSRES_FC_BB   
  911     1    POSRES_FC_BB    POSRES_FC_BB    POSRES_FC_BB   
  912     1    POSRES_FC_BB    POSRES_FC_BB    POSRES_FC_BB   
  913     1    POSRES_FC_BB    POSRES_FC_BB    POSRES_FC_BB   
  914     1    POSRES_FC_BB    POSRES_FC_BB    POSRES_FC_BB   
  915     1    POSRES_FC_BB    POSRES_FC_BB    POSRES_FC_BB   
  916     1    POSRES_FC_BB    POSRES_FC_BB    POSRES_FC_BB   
  917     1    POSRES_FC_BB    POSRES_FC_BB    POSRES_FC_BB   
  918     1    POSRES_FC_BB    POSRES_FC_BB    POSRES_FC_BB   
  919     1    POSRES_FC_BB    POSRES_FC_BB    POSRES_FC_BB   
  920     1    POSRES_FC_BB    POSRES_FC_BB    POSRES_FC_BB   
  921     1    POSRES_FC_BB    POSRES_FC_BB    POSRES_FC_BB   
  922     1    POSRES_FC_BB    POSRES_FC_BB    POSRES_FC_BB   
  923     1    POSRES_FC_BB    POSRES_FC_BB    POSRES_FC_BB   
  924     1    POSRES_FC_BB    POSRES_FC_BB    POSRES_FC_BB   
  925     1    POSRES_FC_BB    POSRES_FC_BB    POSRES_FC_BB   
  926     1    POSRES_FC_BB    POSRES_FC_BB    POSRES_FC_BB   
  927     1    POSRES_FC_BB    POSRES_FC_BB    POSRES_FC_BB   
  928     1    POSRES_FC_BB    POSRES_FC_BB    POSRES_FC_BB   
  929     1    POSRES_FC_BB    POSRES_FC_BB    POSRES_FC_BB   
  930     1    POSRES_FC_BB    POSRES_FC_BB    POSRES_FC_BB   
  931     1    POSRES_FC_BB    POSRES_FC_BB    POSRES_FC_BB   
  932     1    POSRES_FC_BB    POSRES_FC_BB    POSRES_FC_BB   
  933     1    POSRES_FC_BB    POSRES_FC_BB    POSRES_FC_BB   
  934     1    POSRES_FC_BB    POSRES_FC_BB    POSRES_FC_BB   
  935     1    POSRES_FC_BB    POSRES_FC_BB    POSRES_FC_BB   
  936     1    POSRES_FC_BB    POSRES_FC_BB    POSRES_FC_BB   
  937     1    POSRES_FC_BB    POSRES_FC_BB    POSRES_FC_BB   
  938     1    POSRES_FC_BB    POSRES_FC_BB    POSRES_FC_BB   
  939     1    POSRES_FC_BB    POSRES_FC_BB    POSRES_FC_BB   
  940     1    POSRES_FC_BB    POSRES_FC_BB    POSRES_FC_BB   
  941     1    POSRES_FC_BB    POSRES_FC_BB    POSRES_FC_BB   
  942     1    POSRES_FC_BB    POSRES_FC_BB    POSRES_FC_BB   
  943     1    POSRES_FC_BB    POSRES_FC_BB    POSRES_FC_BB   
  944     1    POSRES_FC_BB    POSRES_FC_BB    POSRES_FC_BB   
  945     1    POSRES_FC_BB    POSRES_FC_BB    POSRES_FC_BB   
  946     1    POSRES_FC_BB    POSRES_FC_BB    POSRES_FC_BB   
  947     1    POSRES_FC_BB    POSRES_FC_BB    POSRES_FC_BB   
  948     1    POSRES_FC_BB    POSRES_FC_BB    POSRES_FC_BB   
  949     1    POSRES_FC_BB    POSRES_FC_BB    POSRES_FC_BB   
  950     1    POSRES_FC_BB    POSRES_FC_BB    POSRES_FC_BB   
  951     1    POSRES_FC_BB    POSRES_FC_BB    POSRES_FC_BB   
  952     1    POSRES_FC_BB    POSRES_FC_BB    POSRES_FC_BB   
  953     1    POSRES_FC_BB    POSRES_FC_BB    POSRES_FC_BB   
  954     1    POSRES_FC_BB    POSRES_FC_BB    POSRES_FC_BB   
  955     1    POSRES_FC_BB    POSRES_FC_BB    POSRES_FC_BB   
  956     1    POSRES_FC_BB    POSRES_FC_BB    POSRES_FC_BB   
  957     1    POSRES_FC_BB    POSRES_FC_BB    POSRES_FC_BB   
  958     1    POSRES_FC_BB    POSRES_FC_BB    POSRES_FC_BB   
  959     1    POSRES_FC_BB    POSRES_FC_BB    POSRES_FC_BB   
  960     1    POSRES_FC_BB    POSRES_FC_BB    POSRES_FC_BB   
  961     1    POSRES_FC_BB    POSRES_FC_BB    POSRES_FC_BB   
  962     1    POSRES_FC_BB    POSRES_FC_BB    POSRES_FC_BB   
  963     1    POSRES_FC_BB    POSRES_FC_BB    POSRES_FC_BB   
  964     1    POSRES_FC_BB    POSRES_FC_BB    POSRES_FC_BB   
  965     1    POSRES_FC_BB    POSRES_FC_BB    POSRES_FC_BB   
  966     1    POSRES_FC_BB    POSRES_FC_BB    POSRES_FC_BB   
  967     1    POSRES_FC_BB    POSRES_FC_BB    POSRES_FC_BB   
  968     1    POSRES_FC_BB    POSRES_FC_BB    POSRES_FC_BB   
  969     1    POSRES_FC_BB    POSRES_FC_BB    POSRES_FC_BB   
  970     1    POSRES_FC_BB    POSRES_FC_BB    POSRES_FC_BB   
  971     1    POSRES_FC_BB    POSRES_FC_BB    POSRES_FC_BB   
  972     1    POSRES_FC_BB    POSRES_FC_BB    POSRES_FC_BB   
  973     1    POSRES_FC_BB    POSRES_FC_BB    POSRES_FC_BB   
  974     1    POSRES_FC_BB    POSRES_FC_BB    POSRES_FC_BB   
  975     1    POSRES_FC_BB    POSRES_FC_BB    POSRES_FC_BB   
  976     1    POSRES_FC_BB    POSRES_FC_BB    POSRES_FC_BB   
  977     1    POSRES_FC_BB    POSRES_FC_BB    POSRES_FC_BB   
  978     1    POSRES_FC_BB    POSRES_FC_BB    POSRES_FC_BB   
  979     1    POSRES_FC_BB    POSRES_FC_BB    POSRES_FC_BB   
  980     1    POSRES_FC_BB    POSRES_FC_BB    POSRES_FC_BB   
  981     1    POSRES_FC_BB    POSRES_FC_BB    POSRES_FC_BB   
  982     1    POSRES_FC_BB    POSRES_FC_BB    POSRES_FC_BB   
  983     1    POSRES_FC_BB    POSRES_FC_BB    POSRES_FC_BB   
  984     1    POSRES_FC_BB    POSRES_FC_BB    POSRES_FC_BB   
  985     1    POSRES_FC_BB    POSRES_FC_BB    POSRES_FC_BB   
  986     1    POSRES_FC_BB    POSRES_FC_BB    POSRES_FC_BB   
  987     1    POSRES_FC_BB    POSRES_FC_BB    POSRES_FC_BB   
  988     1    POSRES_FC_BB    POSRES_FC_BB    POSRES_FC_BB   
  989     1    POSRES_FC_BB    POSRES_FC_BB    POSRES_FC_BB   
  990     1    POSRES_FC_BB    POSRES_FC_BB    POSRES_FC_BB   
  991     1    POSRES_FC_BB    POSRES_FC_BB    POSRES_FC_BB   
  992     1    POSRES_FC_BB    POSRES_FC_BB    POSRES_FC_BB   
  993     1    POSRES_FC_BB    POSRES_FC_BB    POSRES_FC_BB   
  994     1    POSRES_FC_BB    POSRES_FC_BB    POSRES_FC_BB   
  995     1    POSRES_FC_BB    POSRES_FC_BB    POSRES_FC_BB   
  996     1    POSRES_FC_BB    POSRES_FC_BB    POSRES_FC_BB   
  997     1    POSRES_FC_BB    POSRES_FC_BB    POSRES_FC_BB   
  998     1    POSRES_FC_BB    POSRES_FC_BB    POSRES_FC_BB   
  999     1    POSRES_FC_BB    POSRES_FC_BB    POSRES_FC_BB   
 1000     1    POSRES_FC_BB    POSRES_FC_BB    POSRES_FC_BB   
 1001     1    POSRES_FC_BB    POSRES_FC_BB    POSRES_FC_BB   
 1002     1    POSRES_FC_BB    POSRES_FC_BB    POSRES_FC_BB   
 1003     1    POSRES_FC_BB    POSRES_FC_BB    POSRES_FC_BB   
 1004     1    POSRES_FC_BB    POSRES_FC_BB    POSRES_FC_BB   
 1005     1    POSRES_FC_BB    POSRES_FC_BB    POSRES_FC_BB   
 1006     1    POSRES_FC_BB    POSRES_FC_BB    POSRES_FC_BB   
 1007     1    POSRES_FC_BB    POSRES_FC_BB    POSRES_FC_BB   
 1008     1    POSRES_FC_BB    POSRES_FC_BB    POSRES_FC_BB   
 1009     1    POSRES_FC_BB    POSRES_FC_BB    POSRES_FC_BB   
 1010     1    POSRES_FC_BB    POSRES_FC_BB    POSRES_FC_BB   
 1011     1    POSRES_FC_BB    POSRES_FC_BB    POSRES_FC_BB   
 1012     1    POSRES_FC_BB    POSRES_FC_BB    POSRES_FC_BB   
 1013     1    POSRES_FC_BB    POSRES_FC_BB    POSRES_FC_BB   
 1014     1    POSRES_FC_BB    POSRES_FC_BB    POSRES_FC_BB   
 1015     1    POSRES_FC_BB    POSRES_FC_BB    POSRES_FC_BB   
 1016     1    POSRES_FC_BB    POSRES_FC_BB    POSRES_FC_BB   
 1017     1    POSRES_FC_BB    POSRES_FC_BB    POSRES_FC_BB   
 1018     1    POSRES_FC_BB    POSRES_FC_BB    POSRES_FC_BB   
 1019     1    POSRES_FC_BB    POSRES_FC_BB    POSRES_FC_BB   
 1020     1    POSRES_FC_BB    POSRES_FC_BB    POSRES_FC_BB   
 1021     1    POSRES_FC_BB    POSRES_FC_BB    POSRES_FC_BB   
 1022     1    POSRES_FC_BB    POSRES_FC_BB    POSRES_FC_BB   
 1023     1    POSRES_FC_BB    POSRES_FC_BB    POSRES_FC_BB   
 1024     1    POSRES_FC_BB    POSRES_FC_BB    POSRES_FC_BB   
 1025     1    POSRES_FC_BB    POSRES_FC_BB    POSRES_FC_BB   
 1026     1    POSRES_FC_BB    POSRES_FC_BB    POSRES_FC_BB   
 1027     1    POSRES_FC_BB    POSRES_FC_BB    POSRES_FC_BB   
 1028     1    POSRES_FC_BB    POSRES_FC_BB    POSRES_FC_BB   
 1029     1    POSRES_FC_BB    POSRES_FC_BB    POSRES_FC_BB   
 1030     1    POSRES_FC_BB    POSRES_FC_BB    POSRES_FC_BB   
 1031     1    POSRES_FC_BB    POSRES_FC_BB    POSRES_FC_BB   
 1032     1    POSRES_FC_BB    POSRES_FC_BB    POSRES_FC_BB   
 1033     1    POSRES_FC_BB    POSRES_FC_BB    POSRES_FC_BB   
 1034     1    POSRES_FC_BB    POSRES_FC_BB    POSRES_FC_BB   
 1035     1    POSRES_FC_BB    POSRES_FC_BB    POSRES_FC_BB   
 1036     1    POSRES_FC_BB    POSRES_FC_BB    POSRES_FC_BB   
 1037     1    POSRES_FC_BB    POSRES_FC_BB    POSRES_FC_BB   
 1038     1    POSRES_FC_BB    POSRES_FC_BB    POSRES_FC_BB   
 1039     1    POSRES_FC_BB    POSRES_FC_BB    POSRES_FC_BB   
 1040     1    POSRES_FC_BB    POSRES_FC_BB    POSRES_FC_BB   
 1041     1    POSRES_FC_BB    POSRES_FC_BB    POSRES_FC_BB   
 1042     1    POSRES_FC_BB    POSRES_FC_BB    POSRES_FC_BB   
 1043     1    POSRES_FC_BB    POSRES_FC_BB    POSRES_FC_BB   
 1044     1    POSRES_FC_BB    POSRES_FC_BB    POSRES_FC_BB   
 1045     1    POSRES_FC_BB    POSRES_FC_BB    POSRES_FC_BB   
 1046     1    POSRES_FC_BB    POSRES_FC_BB    POSRES_FC_BB   
 1047     1    POSRES_FC_BB    POSRES_FC_BB    POSRES_FC_BB   
 1048     1    POSRES_FC_BB    POSRES_FC_BB    POSRES_FC_BB   
 1049     1    POSRES_FC_BB    POSRES_FC_BB    POSRES_FC_BB   
 1050     1    POSRES_FC_BB    POSRES_FC_BB    POSRES_FC_BB   
 1051     1    POSRES_FC_BB    POSRES_FC_BB    POSRES_FC_BB   
 1052     1    POSRES_FC_BB    POSRES_FC_BB    POSRES_FC_BB   
 1053     1    POSRES_FC_BB    POSRES_FC_BB    POSRES_FC_BB   
 1054     1    POSRES_FC_BB    POSRES_FC_BB    POSRES_FC_BB   
 1055     1    POSRES_FC_BB    POSRES_FC_BB    POSRES_FC_BB   
 1056     1    POSRES_FC_BB    POSRES_FC_BB    POSRES_FC_BB   
#endif
