Written by MDAnalysis
   12
    1BENZ    CG    1   0.138  -0.022   0.001
    1BENZ    HG    2   0.246  -0.039   0.001
    1BENZ   CD1    3   0.088   0.108   0.001 
    1BENZ   HD1    4   0.156   0.193   0.002
    1BENZ   CD2    5  -0.050   0.130   0.001
    1BENZ   HD2    6  -0.089   0.231   0.002
    1BENZ   CE1    7  -0.137   0.021  -0.000
    1BENZ   HE1    8  -0.245   0.038  -0.001
    1BENZ   CE2    9  -0.087  -0.109  -0.002
    1BENZ   HE2   10  -0.155  -0.194  -0.003
    1BENZ    CZ   11   0.051  -0.131  -0.001
    1BENZ    HZ   12   0.090  -0.232  -0.001
   10.89640   10.89640   10.89640
