Generated by CHARMM-GUI FF-Converter
60
    160C     C1    1   1.445   1.105   1.582
    160C     C2    2   1.569   1.167   1.554
    160C     C3    3   1.610   1.126   1.424
    160C     C4    4   1.274   1.017   1.431
    160C     C5    5   1.174   1.088   1.503
    160C     C6    6   1.210   1.167   1.614
    160C     C7    7   1.346   1.175   1.654
    160C     C8    8   1.594   1.299   1.597
    160C     C9    9   1.494   1.370   1.669
    160C    C10   10   1.370   1.308   1.698
    160C    C11   11   1.675   1.218   1.339
    160C    C12   12   1.700   1.351   1.382
    160C    C13   13   1.240   1.022   1.293
    160C    C14   14   1.542   1.135   1.150
    160C    C15   15   1.641   1.222   1.201
    160C    C16   16   1.078   1.136   1.410
    160C    C17   17   1.119   1.095   1.280
    160C    C18   18   1.250   1.381   1.685
    160C    C19   19   1.150   1.294   1.633
    160C    C20   20   1.447   1.184   1.057
    160C    C21   21   1.323   1.121   1.085
    160C    C22   22   1.681   1.437   1.271
    160C    C23   23   1.645   1.358   1.159
    160C    C24   24   1.055   1.342   1.540
    160C    C25   25   1.019   1.263   1.429
    160C    C26   26   1.202   1.195   1.072
    160C    C27   27   1.100   1.181   1.170
    160C    C28   28   1.550   1.406   1.067
    160C    C29   29   1.450   1.319   1.015
    160C    C30   30   1.581   1.605   1.420
    160C    C31   31   1.622   1.564   1.290
    160C    C32   32   1.377   1.579   1.615
    160C    C33   33   1.253   1.516   1.644
    160C    C34   34   1.000   1.349   1.318
    160C    C35   35   1.041   1.309   1.189
    160C    C36   36   1.359   1.665   1.504
    160C    C37   37   1.460   1.678   1.407
    160C    C38   38   1.526   1.612   1.197
    160C    C39   39   1.490   1.533   1.086
    160C    C40   40   1.330   1.392   1.002
    160C    C41   41   1.206   1.330   1.031
    160C    C42   42   1.354   1.525   1.046
    160C    C43   43   1.426   1.683   1.269
    160C    C44   44   1.341   1.035   1.196
    160C    C45   45   1.477   1.044   1.236
    160C    C46   46   1.511   1.039   1.373
    160C    C47   47   1.409   1.026   1.470
    160C    C48   48   1.659   1.391   1.511
    160C    C49   49   1.600   1.518   1.530
    160C    C50   50   1.498   1.505   1.628
    160C    C51   51   1.106   1.401   1.103
    160C    C52   52   1.255   1.595   1.118
    160C    C53   53   1.131   1.533   1.146
    160C    C54   54   1.025   1.482   1.361
    160C    C55   55   1.059   1.478   1.499
    160C    C56   56   1.090   1.574   1.276
    160C    C57   57   1.158   1.565   1.550
    160C    C58   58   1.223   1.656   1.464
    160C    C59   59   1.291   1.674   1.230
    160C    C60   60   1.189   1.661   1.327
2.70000   2.70000   2.70000
