Georgetown Riga Oslo Madrid Amsterdam Chisinau Stockholm
   12
    1HFB     F1    1  -0.276   0.004  -0.000
    1HFB     C1    2  -0.139   0.002  -0.000
    1HFB     C2    3  -0.068   0.122  -0.000
    1HFB     F2    4  -0.135   0.241   0.000
    1HFB     C3    5  -0.071  -0.120  -0.000
    1HFB     F3    6  -0.141  -0.237   0.000
    1HFB     C4    7   0.068  -0.122  -0.000
    1HFB     F4    8   0.135  -0.241   0.000
    1HFB     C5    9   0.139  -0.002  -0.000
    1HFB     F5   10   0.276  -0.004  -0.000
    1HFB     C6   11   0.071   0.120  -0.000
    1HFB     F6   12   0.141   0.237   0.000
   15.00000   15.00000   15.00000
