Coordinates from ORCA-job opt E -827.164438411316 
   12
    1UNL      C    1   0.121   0.000  -0.069
    1UNL      C    2   0.001   0.000   0.001
    1UNL      C    3   0.001   0.000   0.139
    1UNL      C    4   0.121   0.000   0.209
    1UNL      C    5   0.241  -0.000   0.139
    1UNL      C    6   0.241   0.000   0.001
    1UNL      F    7  -0.113  -0.000   0.205
    1UNL      F    8   0.121  -0.000   0.341
    1UNL      F    9   0.356  -0.000   0.205
    1UNL      F   10   0.356  -0.000  -0.065
    1UNL      F   11   0.121  -0.000  -0.201
    1UNL      F   12  -0.113  -0.000  -0.065
   0.00000   0.00000   0.00000
