Written by MDAnalysis
   12
    1HFB     FG    1  -0.276   0.004  -0.000
    1HFB     CG    2  -0.139   0.002  -0.000
    1HFB     CD1   3  -0.068   0.122  -0.000
    1HFB     FD1   4  -0.135   0.241   0.000
    1HFB     CD2   5  -0.071  -0.120  -0.000
    1HFB     FD2   6  -0.141  -0.237   0.000
    1HFB     CE1   7   0.068  -0.122  -0.000
    1HFB     FE1   8   0.135  -0.241   0.000
    1HFB     CE2   9   0.139  -0.002  -0.000
    1HFB     FE2  10   0.276  -0.004  -0.000
    1HFB     CZ   11   0.071   0.120  -0.000
    1HFB     FZ   12   0.141   0.237   0.000
   15.00000   15.00000   15.00000