
12
    1FLU     C1    1  -0.000  -0.001   0.000
    1FLU     H1    2  -0.055  -0.094   0.000
    1FLU     C2    3   0.140  -0.001  -0.000
    1FLU     H2    4   0.194  -0.095  -0.000
    1FLU     C3    5   0.210   0.120  -0.000
    1FLU     H3    6   0.318   0.120  -0.000
    1FLU     C4    7   0.140   0.242  -0.000
    1FLU     H4    8   0.194   0.336  -0.000
    1FLU     C5    9  -0.000   0.242  -0.000
    1FLU     H5   10  -0.055   0.335  -0.000
    1FLU     C6   11  -0.068   0.120   0.000
    1FLU     F6   12  -0.203   0.120   0.000
  10.00000  10.00000  10.00000

