Generated by CHARMM-GUI FF-Converter
 1056
    1GP001   C1    1   0.000   0.000   2.528
    1GP001   C2    2   0.123   0.071   2.528
    1GP001   C3    3   0.247   0.000   2.528
    1GP001   C4    4   0.370   0.071   2.528
    1GP001   C5    5   0.370   0.214   2.528
    1GP001   C6    6   0.247   0.285   2.528
    1GP001   C7    7   0.123   0.214   2.528
    1GP001   C8    8   0.000   0.285   2.528
    2GP001   C1    9   0.000   0.427   2.528
    2GP001   C2   10   0.123   0.499   2.528
    2GP001   C3   11   0.247   0.427   2.528
    2GP001   C4   12   0.370   0.499   2.528
    2GP001   C5   13   0.370   0.641   2.528
    2GP001   C6   14   0.247   0.712   2.528
    2GP001   C7   15   0.123   0.641   2.528
    2GP001   C8   16   0.000   0.712   2.528
    3GP001   C1   17   0.000   0.855   2.528
    3GP001   C2   18   0.123   0.926   2.528
    3GP001   C3   19   0.247   0.855   2.528
    3GP001   C4   20   0.370   0.926   2.528
    3GP001   C5   21   0.370   1.068   2.528
    3GP001   C6   22   0.247   1.139   2.528
    3GP001   C7   23   0.123   1.068   2.528
    3GP001   C8   24   0.000   1.139   2.528
    4GP001   C1   25   0.000   1.282   2.528
    4GP001   C2   26   0.123   1.353   2.528
    4GP001   C3   27   0.247   1.282   2.528
    4GP001   C4   28   0.370   1.353   2.528
    4GP001   C5   29   0.370   1.496   2.528
    4GP001   C6   30   0.247   1.567   2.528
    4GP001   C7   31   0.123   1.496   2.528
    4GP001   C8   32   0.000   1.567   2.528
    5GP001   C1   33   0.000   1.709   2.528
    5GP001   C2   34   0.123   1.780   2.528
    5GP001   C3   35   0.247   1.709   2.528
    5GP001   C4   36   0.370   1.780   2.528
    5GP001   C5   37   0.370   1.923   2.528
    5GP001   C6   38   0.247   1.994   2.528
    5GP001   C7   39   0.123   1.923   2.528
    5GP001   C8   40   0.000   1.994   2.528
    6GP001   C1   41   0.000   2.137   2.528
    6GP001   C2   42   0.123   2.208   2.528
    6GP001   C3   43   0.247   2.137   2.528
    6GP001   C4   44   0.370   2.208   2.528
    6GP001   C5   45   0.370   2.350   2.528
    6GP001   C6   46   0.247   2.421   2.528
    6GP001   C7   47   0.123   2.350   2.528
    6GP001   C8   48   0.000   2.421   2.528
    7GP001   C1   49   0.000   2.564   2.528
    7GP001   C2   50   0.123   2.635   2.528
    7GP001   C3   51   0.247   2.564   2.528
    7GP001   C4   52   0.370   2.635   2.528
    7GP001   C5   53   0.370   2.777   2.528
    7GP001   C6   54   0.247   2.849   2.528
    7GP001   C7   55   0.123   2.777   2.528
    7GP001   C8   56   0.000   2.849   2.528
    8GP001   C1   57   0.000   2.991   2.528
    8GP001   C2   58   0.123   3.062   2.528
    8GP001   C3   59   0.247   2.991   2.528
    8GP001   C4   60   0.370   3.062   2.528
    8GP001   C5   61   0.370   3.205   2.528
    8GP001   C6   62   0.247   3.276   2.528
    8GP001   C7   63   0.123   3.205   2.528
    8GP001   C8   64   0.000   3.276   2.528
    9GP001   C1   65   0.000   3.418   2.528
    9GP001   C2   66   0.123   3.490   2.528
    9GP001   C3   67   0.247   3.418   2.528
    9GP001   C4   68   0.370   3.490   2.528
    9GP001   C5   69   0.370   3.632   2.528
    9GP001   C6   70   0.247   3.703   2.528
    9GP001   C7   71   0.123   3.632   2.528
    9GP001   C8   72   0.000   3.703   2.528
   10GP001   C1   73   0.000   3.846   2.528
   10GP001   C2   74   0.123   3.917   2.528
   10GP001   C3   75   0.247   3.846   2.528
   10GP001   C4   76   0.370   3.917   2.528
   10GP001   C5   77   0.370   4.059   2.528
   10GP001   C6   78   0.247   4.130   2.528
   10GP001   C7   79   0.123   4.059   2.528
   10GP001   C8   80   0.000   4.130   2.528
   11GP001   C1   81   0.000   4.273   2.528
   11GP001   C2   82   0.123   4.344   2.528
   11GP001   C3   83   0.247   4.273   2.528
   11GP001   C4   84   0.370   4.344   2.528
   11GP001   C5   85   0.370   4.487   2.528
   11GP001   C6   86   0.247   4.558   2.528
   11GP001   C7   87   0.123   4.487   2.528
   11GP001   C8   88   0.000   4.558   2.528
   12GP001   C1   89   0.000   4.700   2.528
   12GP001   C2   90   0.123   4.772   2.528
   12GP001   C3   91   0.247   4.700   2.528
   12GP001   C4   92   0.370   4.772   2.528
   12GP001   C5   93   0.370   4.914   2.528
   12GP001   C6   94   0.247   4.985   2.528
   12GP001   C7   95   0.123   4.914   2.528
   12GP001   C8   96   0.000   4.985   2.528
   13GP001   C1   97   0.493   0.000   2.528
   13GP001   C2   98   0.617   0.071   2.528
   13GP001   C3   99   0.740   0.000   2.528
   13GP001   C4  100   0.864   0.071   2.528
   13GP001   C5  101   0.864   0.214   2.528
   13GP001   C6  102   0.740   0.285   2.528
   13GP001   C7  103   0.617   0.214   2.528
   13GP001   C8  104   0.493   0.285   2.528
   14GP001   C1  105   0.493   0.427   2.528
   14GP001   C2  106   0.617   0.499   2.528
   14GP001   C3  107   0.740   0.427   2.528
   14GP001   C4  108   0.864   0.499   2.528
   14GP001   C5  109   0.864   0.641   2.528
   14GP001   C6  110   0.740   0.712   2.528
   14GP001   C7  111   0.617   0.641   2.528
   14GP001   C8  112   0.493   0.712   2.528
   15GP001   C1  113   0.493   0.855   2.528
   15GP001   C2  114   0.617   0.926   2.528
   15GP001   C3  115   0.740   0.855   2.528
   15GP001   C4  116   0.864   0.926   2.528
   15GP001   C5  117   0.864   1.068   2.528
   15GP001   C6  118   0.740   1.139   2.528
   15GP001   C7  119   0.617   1.068   2.528
   15GP001   C8  120   0.493   1.139   2.528
   16GP001   C1  121   0.493   1.282   2.528
   16GP001   C2  122   0.617   1.353   2.528
   16GP001   C3  123   0.740   1.282   2.528
   16GP001   C4  124   0.864   1.353   2.528
   16GP001   C5  125   0.864   1.496   2.528
   16GP001   C6  126   0.740   1.567   2.528
   16GP001   C7  127   0.617   1.496   2.528
   16GP001   C8  128   0.493   1.567   2.528
   17GP001   C1  129   0.493   1.709   2.528
   17GP001   C2  130   0.617   1.780   2.528
   17GP001   C3  131   0.740   1.709   2.528
   17GP001   C4  132   0.864   1.780   2.528
   17GP001   C5  133   0.864   1.923   2.528
   17GP001   C6  134   0.740   1.994   2.528
   17GP001   C7  135   0.617   1.923   2.528
   17GP001   C8  136   0.493   1.994   2.528
   18GP001   C1  137   0.493   2.137   2.528
   18GP001   C2  138   0.617   2.208   2.528
   18GP001   C3  139   0.740   2.137   2.528
   18GP001   C4  140   0.864   2.208   2.528
   18GP001   C5  141   0.864   2.350   2.528
   18GP001   C6  142   0.740   2.421   2.528
   18GP001   C7  143   0.617   2.350   2.528
   18GP001   C8  144   0.493   2.421   2.528
   19GP001   C1  145   0.493   2.564   2.528
   19GP001   C2  146   0.617   2.635   2.528
   19GP001   C3  147   0.740   2.564   2.528
   19GP001   C4  148   0.864   2.635   2.528
   19GP001   C5  149   0.864   2.777   2.528
   19GP001   C6  150   0.740   2.849   2.528
   19GP001   C7  151   0.617   2.777   2.528
   19GP001   C8  152   0.493   2.849   2.528
   20GP001   C1  153   0.493   2.991   2.528
   20GP001   C2  154   0.617   3.062   2.528
   20GP001   C3  155   0.740   2.991   2.528
   20GP001   C4  156   0.864   3.062   2.528
   20GP001   C5  157   0.864   3.205   2.528
   20GP001   C6  158   0.740   3.276   2.528
   20GP001   C7  159   0.617   3.205   2.528
   20GP001   C8  160   0.493   3.276   2.528
   21GP001   C1  161   0.493   3.418   2.528
   21GP001   C2  162   0.617   3.490   2.528
   21GP001   C3  163   0.740   3.418   2.528
   21GP001   C4  164   0.864   3.490   2.528
   21GP001   C5  165   0.864   3.632   2.528
   21GP001   C6  166   0.740   3.703   2.528
   21GP001   C7  167   0.617   3.632   2.528
   21GP001   C8  168   0.493   3.703   2.528
   22GP001   C1  169   0.493   3.846   2.528
   22GP001   C2  170   0.617   3.917   2.528
   22GP001   C3  171   0.740   3.846   2.528
   22GP001   C4  172   0.864   3.917   2.528
   22GP001   C5  173   0.864   4.059   2.528
   22GP001   C6  174   0.740   4.130   2.528
   22GP001   C7  175   0.617   4.059   2.528
   22GP001   C8  176   0.493   4.130   2.528
   23GP001   C1  177   0.493   4.273   2.528
   23GP001   C2  178   0.617   4.344   2.528
   23GP001   C3  179   0.740   4.273   2.528
   23GP001   C4  180   0.864   4.344   2.528
   23GP001   C5  181   0.864   4.487   2.528
   23GP001   C6  182   0.740   4.558   2.528
   23GP001   C7  183   0.617   4.487   2.528
   23GP001   C8  184   0.493   4.558   2.528
   24GP001   C1  185   0.493   4.700   2.528
   24GP001   C2  186   0.617   4.772   2.528
   24GP001   C3  187   0.740   4.700   2.528
   24GP001   C4  188   0.864   4.772   2.528
   24GP001   C5  189   0.864   4.914   2.528
   24GP001   C6  190   0.740   4.985   2.528
   24GP001   C7  191   0.617   4.914   2.528
   24GP001   C8  192   0.493   4.985   2.528
   25GP001   C1  193   0.987   0.000   2.528
   25GP001   C2  194   1.110   0.071   2.528
   25GP001   C3  195   1.234   0.000   2.528
   25GP001   C4  196   1.357   0.071   2.528
   25GP001   C5  197   1.357   0.214   2.528
   25GP001   C6  198   1.234   0.285   2.528
   25GP001   C7  199   1.110   0.214   2.528
   25GP001   C8  200   0.987   0.285   2.528
   26GP001   C1  201   0.987   0.427   2.528
   26GP001   C2  202   1.110   0.499   2.528
   26GP001   C3  203   1.234   0.427   2.528
   26GP001   C4  204   1.357   0.499   2.528
   26GP001   C5  205   1.357   0.641   2.528
   26GP001   C6  206   1.234   0.712   2.528
   26GP001   C7  207   1.110   0.641   2.528
   26GP001   C8  208   0.987   0.712   2.528
   27GP001   C1  209   0.987   0.855   2.528
   27GP001   C2  210   1.110   0.926   2.528
   27GP001   C3  211   1.234   0.855   2.528
   27GP001   C4  212   1.357   0.926   2.528
   27GP001   C5  213   1.357   1.068   2.528
   27GP001   C6  214   1.234   1.139   2.528
   27GP001   C7  215   1.110   1.068   2.528
   27GP001   C8  216   0.987   1.139   2.528
   28GP001   C1  217   0.987   1.282   2.528
   28GP001   C2  218   1.110   1.353   2.528
   28GP001   C3  219   1.234   1.282   2.528
   28GP001   C4  220   1.357   1.353   2.528
   28GP001   C5  221   1.357   1.496   2.528
   28GP001   C6  222   1.234   1.567   2.528
   28GP001   C7  223   1.110   1.496   2.528
   28GP001   C8  224   0.987   1.567   2.528
   29GP001   C1  225   0.987   1.709   2.528
   29GP001   C2  226   1.110   1.780   2.528
   29GP001   C3  227   1.234   1.709   2.528
   29GP001   C4  228   1.357   1.780   2.528
   29GP001   C5  229   1.357   1.923   2.528
   29GP001   C6  230   1.234   1.994   2.528
   29GP001   C7  231   1.110   1.923   2.528
   29GP001   C8  232   0.987   1.994   2.528
   30GP001   C1  233   0.987   2.137   2.528
   30GP001   C2  234   1.110   2.208   2.528
   30GP001   C3  235   1.234   2.137   2.528
   30GP001   C4  236   1.357   2.208   2.528
   30GP001   C5  237   1.357   2.350   2.528
   30GP001   C6  238   1.234   2.421   2.528
   30GP001   C7  239   1.110   2.350   2.528
   30GP001   C8  240   0.987   2.421   2.528
   31GP001   C1  241   0.987   2.564   2.528
   31GP001   C2  242   1.110   2.635   2.528
   31GP001   C3  243   1.234   2.564   2.528
   31GP001   C4  244   1.357   2.635   2.528
   31GP001   C5  245   1.357   2.777   2.528
   31GP001   C6  246   1.234   2.849   2.528
   31GP001   C7  247   1.110   2.777   2.528
   31GP001   C8  248   0.987   2.849   2.528
   32GP001   C1  249   0.987   2.991   2.528
   32GP001   C2  250   1.110   3.062   2.528
   32GP001   C3  251   1.234   2.991   2.528
   32GP001   C4  252   1.357   3.062   2.528
   32GP001   C5  253   1.357   3.205   2.528
   32GP001   C6  254   1.234   3.276   2.528
   32GP001   C7  255   1.110   3.205   2.528
   32GP001   C8  256   0.987   3.276   2.528
   33GP001   C1  257   0.987   3.418   2.528
   33GP001   C2  258   1.110   3.490   2.528
   33GP001   C3  259   1.234   3.418   2.528
   33GP001   C4  260   1.357   3.490   2.528
   33GP001   C5  261   1.357   3.632   2.528
   33GP001   C6  262   1.234   3.703   2.528
   33GP001   C7  263   1.110   3.632   2.528
   33GP001   C8  264   0.987   3.703   2.528
   34GP001   C1  265   0.987   3.846   2.528
   34GP001   C2  266   1.110   3.917   2.528
   34GP001   C3  267   1.234   3.846   2.528
   34GP001   C4  268   1.357   3.917   2.528
   34GP001   C5  269   1.357   4.059   2.528
   34GP001   C6  270   1.234   4.130   2.528
   34GP001   C7  271   1.110   4.059   2.528
   34GP001   C8  272   0.987   4.130   2.528
   35GP001   C1  273   0.987   4.273   2.528
   35GP001   C2  274   1.110   4.344   2.528
   35GP001   C3  275   1.234   4.273   2.528
   35GP001   C4  276   1.357   4.344   2.528
   35GP001   C5  277   1.357   4.487   2.528
   35GP001   C6  278   1.234   4.558   2.528
   35GP001   C7  279   1.110   4.487   2.528
   35GP001   C8  280   0.987   4.558   2.528
   36GP001   C1  281   0.987   4.700   2.528
   36GP001   C2  282   1.110   4.772   2.528
   36GP001   C3  283   1.234   4.700   2.528
   36GP001   C4  284   1.357   4.772   2.528
   36GP001   C5  285   1.357   4.914   2.528
   36GP001   C6  286   1.234   4.985   2.528
   36GP001   C7  287   1.110   4.914   2.528
   36GP001   C8  288   0.987   4.985   2.528
   37GP001   C1  289   1.480   0.000   2.528
   37GP001   C2  290   1.604   0.071   2.528
   37GP001   C3  291   1.727   0.000   2.528
   37GP001   C4  292   1.850   0.071   2.528
   37GP001   C5  293   1.850   0.214   2.528
   37GP001   C6  294   1.727   0.285   2.528
   37GP001   C7  295   1.604   0.214   2.528
   37GP001   C8  296   1.480   0.285   2.528
   38GP001   C1  297   1.480   0.427   2.528
   38GP001   C2  298   1.604   0.499   2.528
   38GP001   C3  299   1.727   0.427   2.528
   38GP001   C4  300   1.850   0.499   2.528
   38GP001   C5  301   1.850   0.641   2.528
   38GP001   C6  302   1.727   0.712   2.528
   38GP001   C7  303   1.604   0.641   2.528
   38GP001   C8  304   1.480   0.712   2.528
   39GP001   C1  305   1.480   0.855   2.528
   39GP001   C2  306   1.604   0.926   2.528
   39GP001   C3  307   1.727   0.855   2.528
   39GP001   C4  308   1.850   0.926   2.528
   39GP001   C5  309   1.850   1.068   2.528
   39GP001   C6  310   1.727   1.139   2.528
   39GP001   C7  311   1.604   1.068   2.528
   39GP001   C8  312   1.480   1.139   2.528
   40GP001   C1  313   1.480   1.282   2.528
   40GP001   C2  314   1.604   1.353   2.528
   40GP001   C3  315   1.727   1.282   2.528
   40GP001   C4  316   1.850   1.353   2.528
   40GP001   C5  317   1.850   1.496   2.528
   40GP001   C6  318   1.727   1.567   2.528
   40GP001   C7  319   1.604   1.496   2.528
   40GP001   C8  320   1.480   1.567   2.528
   41GP001   C1  321   1.480   1.709   2.528
   41GP001   C2  322   1.604   1.780   2.528
   41GP001   C3  323   1.727   1.709   2.528
   41GP001   C4  324   1.850   1.780   2.528
   41GP001   C5  325   1.850   1.923   2.528
   41GP001   C6  326   1.727   1.994   2.528
   41GP001   C7  327   1.604   1.923   2.528
   41GP001   C8  328   1.480   1.994   2.528
   42GP001   C1  329   1.480   2.137   2.528
   42GP001   C2  330   1.604   2.208   2.528
   42GP001   C3  331   1.727   2.137   2.528
   42GP001   C4  332   1.850   2.208   2.528
   42GP001   C5  333   1.850   2.350   2.528
   42GP001   C6  334   1.727   2.421   2.528
   42GP001   C7  335   1.604   2.350   2.528
   42GP001   C8  336   1.480   2.421   2.528
   43GP001   C1  337   1.480   2.564   2.528
   43GP001   C2  338   1.604   2.635   2.528
   43GP001   C3  339   1.727   2.564   2.528
   43GP001   C4  340   1.850   2.635   2.528
   43GP001   C5  341   1.850   2.777   2.528
   43GP001   C6  342   1.727   2.849   2.528
   43GP001   C7  343   1.604   2.777   2.528
   43GP001   C8  344   1.480   2.849   2.528
   44GP001   C1  345   1.480   2.991   2.528
   44GP001   C2  346   1.604   3.062   2.528
   44GP001   C3  347   1.727   2.991   2.528
   44GP001   C4  348   1.850   3.062   2.528
   44GP001   C5  349   1.850   3.205   2.528
   44GP001   C6  350   1.727   3.276   2.528
   44GP001   C7  351   1.604   3.205   2.528
   44GP001   C8  352   1.480   3.276   2.528
   45GP001   C1  353   1.480   3.418   2.528
   45GP001   C2  354   1.604   3.490   2.528
   45GP001   C3  355   1.727   3.418   2.528
   45GP001   C4  356   1.850   3.490   2.528
   45GP001   C5  357   1.850   3.632   2.528
   45GP001   C6  358   1.727   3.703   2.528
   45GP001   C7  359   1.604   3.632   2.528
   45GP001   C8  360   1.480   3.703   2.528
   46GP001   C1  361   1.480   3.846   2.528
   46GP001   C2  362   1.604   3.917   2.528
   46GP001   C3  363   1.727   3.846   2.528
   46GP001   C4  364   1.850   3.917   2.528
   46GP001   C5  365   1.850   4.059   2.528
   46GP001   C6  366   1.727   4.130   2.528
   46GP001   C7  367   1.604   4.059   2.528
   46GP001   C8  368   1.480   4.130   2.528
   47GP001   C1  369   1.480   4.273   2.528
   47GP001   C2  370   1.604   4.344   2.528
   47GP001   C3  371   1.727   4.273   2.528
   47GP001   C4  372   1.850   4.344   2.528
   47GP001   C5  373   1.850   4.487   2.528
   47GP001   C6  374   1.727   4.558   2.528
   47GP001   C7  375   1.604   4.487   2.528
   47GP001   C8  376   1.480   4.558   2.528
   48GP001   C1  377   1.480   4.700   2.528
   48GP001   C2  378   1.604   4.772   2.528
   48GP001   C3  379   1.727   4.700   2.528
   48GP001   C4  380   1.850   4.772   2.528
   48GP001   C5  381   1.850   4.914   2.528
   48GP001   C6  382   1.727   4.985   2.528
   48GP001   C7  383   1.604   4.914   2.528
   48GP001   C8  384   1.480   4.985   2.528
   49GP001   C1  385   1.974   0.000   2.528
   49GP001   C2  386   2.097   0.071   2.528
   49GP001   C3  387   2.220   0.000   2.528
   49GP001   C4  388   2.344   0.071   2.528
   49GP001   C5  389   2.344   0.214   2.528
   49GP001   C6  390   2.220   0.285   2.528
   49GP001   C7  391   2.097   0.214   2.528
   49GP001   C8  392   1.974   0.285   2.528
   50GP001   C1  393   1.974   0.427   2.528
   50GP001   C2  394   2.097   0.499   2.528
   50GP001   C3  395   2.220   0.427   2.528
   50GP001   C4  396   2.344   0.499   2.528
   50GP001   C5  397   2.344   0.641   2.528
   50GP001   C6  398   2.220   0.712   2.528
   50GP001   C7  399   2.097   0.641   2.528
   50GP001   C8  400   1.974   0.712   2.528
   51GP001   C1  401   1.974   0.855   2.528
   51GP001   C2  402   2.097   0.926   2.528
   51GP001   C3  403   2.220   0.855   2.528
   51GP001   C4  404   2.344   0.926   2.528
   51GP001   C5  405   2.344   1.068   2.528
   51GP001   C6  406   2.220   1.139   2.528
   51GP001   C7  407   2.097   1.068   2.528
   51GP001   C8  408   1.974   1.139   2.528
   52GP001   C1  409   1.974   1.282   2.528
   52GP001   C2  410   2.097   1.353   2.528
   52GP001   C3  411   2.220   1.282   2.528
   52GP001   C4  412   2.344   1.353   2.528
   52GP001   C5  413   2.344   1.496   2.528
   52GP001   C6  414   2.220   1.567   2.528
   52GP001   C7  415   2.097   1.496   2.528
   52GP001   C8  416   1.974   1.567   2.528
   53GP001   C1  417   1.974   1.709   2.528
   53GP001   C2  418   2.097   1.780   2.528
   53GP001   C3  419   2.220   1.709   2.528
   53GP001   C4  420   2.344   1.780   2.528
   53GP001   C5  421   2.344   1.923   2.528
   53GP001   C6  422   2.220   1.994   2.528
   53GP001   C7  423   2.097   1.923   2.528
   53GP001   C8  424   1.974   1.994   2.528
   54GP001   C1  425   1.974   2.137   2.528
   54GP001   C2  426   2.097   2.208   2.528
   54GP001   C3  427   2.220   2.137   2.528
   54GP001   C4  428   2.344   2.208   2.528
   54GP001   C5  429   2.344   2.350   2.528
   54GP001   C6  430   2.220   2.421   2.528
   54GP001   C7  431   2.097   2.350   2.528
   54GP001   C8  432   1.974   2.421   2.528
   55GP001   C1  433   1.974   2.564   2.528
   55GP001   C2  434   2.097   2.635   2.528
   55GP001   C3  435   2.220   2.564   2.528
   55GP001   C4  436   2.344   2.635   2.528
   55GP001   C5  437   2.344   2.777   2.528
   55GP001   C6  438   2.220   2.849   2.528
   55GP001   C7  439   2.097   2.777   2.528
   55GP001   C8  440   1.974   2.849   2.528
   56GP001   C1  441   1.974   2.991   2.528
   56GP001   C2  442   2.097   3.062   2.528
   56GP001   C3  443   2.220   2.991   2.528
   56GP001   C4  444   2.344   3.062   2.528
   56GP001   C5  445   2.344   3.205   2.528
   56GP001   C6  446   2.220   3.276   2.528
   56GP001   C7  447   2.097   3.205   2.528
   56GP001   C8  448   1.974   3.276   2.528
   57GP001   C1  449   1.974   3.418   2.528
   57GP001   C2  450   2.097   3.490   2.528
   57GP001   C3  451   2.220   3.418   2.528
   57GP001   C4  452   2.344   3.490   2.528
   57GP001   C5  453   2.344   3.632   2.528
   57GP001   C6  454   2.220   3.703   2.528
   57GP001   C7  455   2.097   3.632   2.528
   57GP001   C8  456   1.974   3.703   2.528
   58GP001   C1  457   1.974   3.846   2.528
   58GP001   C2  458   2.097   3.917   2.528
   58GP001   C3  459   2.220   3.846   2.528
   58GP001   C4  460   2.344   3.917   2.528
   58GP001   C5  461   2.344   4.059   2.528
   58GP001   C6  462   2.220   4.130   2.528
   58GP001   C7  463   2.097   4.059   2.528
   58GP001   C8  464   1.974   4.130   2.528
   59GP001   C1  465   1.974   4.273   2.528
   59GP001   C2  466   2.097   4.344   2.528
   59GP001   C3  467   2.220   4.273   2.528
   59GP001   C4  468   2.344   4.344   2.528
   59GP001   C5  469   2.344   4.487   2.528
   59GP001   C6  470   2.220   4.558   2.528
   59GP001   C7  471   2.097   4.487   2.528
   59GP001   C8  472   1.974   4.558   2.528
   60GP001   C1  473   1.974   4.700   2.528
   60GP001   C2  474   2.097   4.772   2.528
   60GP001   C3  475   2.220   4.700   2.528
   60GP001   C4  476   2.344   4.772   2.528
   60GP001   C5  477   2.344   4.914   2.528
   60GP001   C6  478   2.220   4.985   2.528
   60GP001   C7  479   2.097   4.914   2.528
   60GP001   C8  480   1.974   4.985   2.528
   61GP001   C1  481   2.467   0.000   2.528
   61GP001   C2  482   2.590   0.071   2.528
   61GP001   C3  483   2.714   0.000   2.528
   61GP001   C4  484   2.837   0.071   2.528
   61GP001   C5  485   2.837   0.214   2.528
   61GP001   C6  486   2.714   0.285   2.528
   61GP001   C7  487   2.590   0.214   2.528
   61GP001   C8  488   2.467   0.285   2.528
   62GP001   C1  489   2.467   0.427   2.528
   62GP001   C2  490   2.590   0.499   2.528
   62GP001   C3  491   2.714   0.427   2.528
   62GP001   C4  492   2.837   0.499   2.528
   62GP001   C5  493   2.837   0.641   2.528
   62GP001   C6  494   2.714   0.712   2.528
   62GP001   C7  495   2.590   0.641   2.528
   62GP001   C8  496   2.467   0.712   2.528
   63GP001   C1  497   2.467   0.855   2.528
   63GP001   C2  498   2.590   0.926   2.528
   63GP001   C3  499   2.714   0.855   2.528
   63GP001   C4  500   2.837   0.926   2.528
   63GP001   C5  501   2.837   1.068   2.528
   63GP001   C6  502   2.714   1.139   2.528
   63GP001   C7  503   2.590   1.068   2.528
   63GP001   C8  504   2.467   1.139   2.528
   64GP001   C1  505   2.467   1.282   2.528
   64GP001   C2  506   2.590   1.353   2.528
   64GP001   C3  507   2.714   1.282   2.528
   64GP001   C4  508   2.837   1.353   2.528
   64GP001   C5  509   2.837   1.496   2.528
   64GP001   C6  510   2.714   1.567   2.528
   64GP001   C7  511   2.590   1.496   2.528
   64GP001   C8  512   2.467   1.567   2.528
   65GP001   C1  513   2.467   1.709   2.528
   65GP001   C2  514   2.590   1.780   2.528
   65GP001   C3  515   2.714   1.709   2.528
   65GP001   C4  516   2.837   1.780   2.528
   65GP001   C5  517   2.837   1.923   2.528
   65GP001   C6  518   2.714   1.994   2.528
   65GP001   C7  519   2.590   1.923   2.528
   65GP001   C8  520   2.467   1.994   2.528
   66GP001   C1  521   2.467   2.137   2.528
   66GP001   C2  522   2.590   2.208   2.528
   66GP001   C3  523   2.714   2.137   2.528
   66GP001   C4  524   2.837   2.208   2.528
   66GP001   C5  525   2.837   2.350   2.528
   66GP001   C6  526   2.714   2.421   2.528
   66GP001   C7  527   2.590   2.350   2.528
   66GP001   C8  528   2.467   2.421   2.528
   67GP001   C1  529   2.467   2.564   2.528
   67GP001   C2  530   2.590   2.635   2.528
   67GP001   C3  531   2.714   2.564   2.528
   67GP001   C4  532   2.837   2.635   2.528
   67GP001   C5  533   2.837   2.777   2.528
   67GP001   C6  534   2.714   2.849   2.528
   67GP001   C7  535   2.590   2.777   2.528
   67GP001   C8  536   2.467   2.849   2.528
   68GP001   C1  537   2.467   2.991   2.528
   68GP001   C2  538   2.590   3.062   2.528
   68GP001   C3  539   2.714   2.991   2.528
   68GP001   C4  540   2.837   3.062   2.528
   68GP001   C5  541   2.837   3.205   2.528
   68GP001   C6  542   2.714   3.276   2.528
   68GP001   C7  543   2.590   3.205   2.528
   68GP001   C8  544   2.467   3.276   2.528
   69GP001   C1  545   2.467   3.418   2.528
   69GP001   C2  546   2.590   3.490   2.528
   69GP001   C3  547   2.714   3.418   2.528
   69GP001   C4  548   2.837   3.490   2.528
   69GP001   C5  549   2.837   3.632   2.528
   69GP001   C6  550   2.714   3.703   2.528
   69GP001   C7  551   2.590   3.632   2.528
   69GP001   C8  552   2.467   3.703   2.528
   70GP001   C1  553   2.467   3.846   2.528
   70GP001   C2  554   2.590   3.917   2.528
   70GP001   C3  555   2.714   3.846   2.528
   70GP001   C4  556   2.837   3.917   2.528
   70GP001   C5  557   2.837   4.059   2.528
   70GP001   C6  558   2.714   4.130   2.528
   70GP001   C7  559   2.590   4.059   2.528
   70GP001   C8  560   2.467   4.130   2.528
   71GP001   C1  561   2.467   4.273   2.528
   71GP001   C2  562   2.590   4.344   2.528
   71GP001   C3  563   2.714   4.273   2.528
   71GP001   C4  564   2.837   4.344   2.528
   71GP001   C5  565   2.837   4.487   2.528
   71GP001   C6  566   2.714   4.558   2.528
   71GP001   C7  567   2.590   4.487   2.528
   71GP001   C8  568   2.467   4.558   2.528
   72GP001   C1  569   2.467   4.700   2.528
   72GP001   C2  570   2.590   4.772   2.528
   72GP001   C3  571   2.714   4.700   2.528
   72GP001   C4  572   2.837   4.772   2.528
   72GP001   C5  573   2.837   4.914   2.528
   72GP001   C6  574   2.714   4.985   2.528
   72GP001   C7  575   2.590   4.914   2.528
   72GP001   C8  576   2.467   4.985   2.528
   73GP001   C1  577   2.960   0.000   2.528
   73GP001   C2  578   3.084   0.071   2.528
   73GP001   C3  579   3.207   0.000   2.528
   73GP001   C4  580   3.330   0.071   2.528
   73GP001   C5  581   3.330   0.214   2.528
   73GP001   C6  582   3.207   0.285   2.528
   73GP001   C7  583   3.084   0.214   2.528
   73GP001   C8  584   2.960   0.285   2.528
   74GP001   C1  585   2.960   0.427   2.528
   74GP001   C2  586   3.084   0.499   2.528
   74GP001   C3  587   3.207   0.427   2.528
   74GP001   C4  588   3.330   0.499   2.528
   74GP001   C5  589   3.330   0.641   2.528
   74GP001   C6  590   3.207   0.712   2.528
   74GP001   C7  591   3.084   0.641   2.528
   74GP001   C8  592   2.960   0.712   2.528
   75GP001   C1  593   2.960   0.855   2.528
   75GP001   C2  594   3.084   0.926   2.528
   75GP001   C3  595   3.207   0.855   2.528
   75GP001   C4  596   3.330   0.926   2.528
   75GP001   C5  597   3.330   1.068   2.528
   75GP001   C6  598   3.207   1.139   2.528
   75GP001   C7  599   3.084   1.068   2.528
   75GP001   C8  600   2.960   1.139   2.528
   76GP001   C1  601   2.960   1.282   2.528
   76GP001   C2  602   3.084   1.353   2.528
   76GP001   C3  603   3.207   1.282   2.528
   76GP001   C4  604   3.330   1.353   2.528
   76GP001   C5  605   3.330   1.496   2.528
   76GP001   C6  606   3.207   1.567   2.528
   76GP001   C7  607   3.084   1.496   2.528
   76GP001   C8  608   2.960   1.567   2.528
   77GP001   C1  609   2.960   1.709   2.528
   77GP001   C2  610   3.084   1.780   2.528
   77GP001   C3  611   3.207   1.709   2.528
   77GP001   C4  612   3.330   1.780   2.528
   77GP001   C5  613   3.330   1.923   2.528
   77GP001   C6  614   3.207   1.994   2.528
   77GP001   C7  615   3.084   1.923   2.528
   77GP001   C8  616   2.960   1.994   2.528
   78GP001   C1  617   2.960   2.137   2.528
   78GP001   C2  618   3.084   2.208   2.528
   78GP001   C3  619   3.207   2.137   2.528
   78GP001   C4  620   3.330   2.208   2.528
   78GP001   C5  621   3.330   2.350   2.528
   78GP001   C6  622   3.207   2.421   2.528
   78GP001   C7  623   3.084   2.350   2.528
   78GP001   C8  624   2.960   2.421   2.528
   79GP001   C1  625   2.960   2.564   2.528
   79GP001   C2  626   3.084   2.635   2.528
   79GP001   C3  627   3.207   2.564   2.528
   79GP001   C4  628   3.330   2.635   2.528
   79GP001   C5  629   3.330   2.777   2.528
   79GP001   C6  630   3.207   2.849   2.528
   79GP001   C7  631   3.084   2.777   2.528
   79GP001   C8  632   2.960   2.849   2.528
   80GP001   C1  633   2.960   2.991   2.528
   80GP001   C2  634   3.084   3.062   2.528
   80GP001   C3  635   3.207   2.991   2.528
   80GP001   C4  636   3.330   3.062   2.528
   80GP001   C5  637   3.330   3.205   2.528
   80GP001   C6  638   3.207   3.276   2.528
   80GP001   C7  639   3.084   3.205   2.528
   80GP001   C8  640   2.960   3.276   2.528
   81GP001   C1  641   2.960   3.418   2.528
   81GP001   C2  642   3.084   3.490   2.528
   81GP001   C3  643   3.207   3.418   2.528
   81GP001   C4  644   3.330   3.490   2.528
   81GP001   C5  645   3.330   3.632   2.528
   81GP001   C6  646   3.207   3.703   2.528
   81GP001   C7  647   3.084   3.632   2.528
   81GP001   C8  648   2.960   3.703   2.528
   82GP001   C1  649   2.960   3.846   2.528
   82GP001   C2  650   3.084   3.917   2.528
   82GP001   C3  651   3.207   3.846   2.528
   82GP001   C4  652   3.330   3.917   2.528
   82GP001   C5  653   3.330   4.059   2.528
   82GP001   C6  654   3.207   4.130   2.528
   82GP001   C7  655   3.084   4.059   2.528
   82GP001   C8  656   2.960   4.130   2.528
   83GP001   C1  657   2.960   4.273   2.528
   83GP001   C2  658   3.084   4.344   2.528
   83GP001   C3  659   3.207   4.273   2.528
   83GP001   C4  660   3.330   4.344   2.528
   83GP001   C5  661   3.330   4.487   2.528
   83GP001   C6  662   3.207   4.558   2.528
   83GP001   C7  663   3.084   4.487   2.528
   83GP001   C8  664   2.960   4.558   2.528
   84GP001   C1  665   2.960   4.700   2.528
   84GP001   C2  666   3.084   4.772   2.528
   84GP001   C3  667   3.207   4.700   2.528
   84GP001   C4  668   3.330   4.772   2.528
   84GP001   C5  669   3.330   4.914   2.528
   84GP001   C6  670   3.207   4.985   2.528
   84GP001   C7  671   3.084   4.914   2.528
   84GP001   C8  672   2.960   4.985   2.528
   85GP001   C1  673   3.454   0.000   2.528
   85GP001   C2  674   3.577   0.071   2.528
   85GP001   C3  675   3.701   0.000   2.528
   85GP001   C4  676   3.824   0.071   2.528
   85GP001   C5  677   3.824   0.214   2.528
   85GP001   C6  678   3.701   0.285   2.528
   85GP001   C7  679   3.577   0.214   2.528
   85GP001   C8  680   3.454   0.285   2.528
   86GP001   C1  681   3.454   0.427   2.528
   86GP001   C2  682   3.577   0.499   2.528
   86GP001   C3  683   3.701   0.427   2.528
   86GP001   C4  684   3.824   0.499   2.528
   86GP001   C5  685   3.824   0.641   2.528
   86GP001   C6  686   3.701   0.712   2.528
   86GP001   C7  687   3.577   0.641   2.528
   86GP001   C8  688   3.454   0.712   2.528
   87GP001   C1  689   3.454   0.855   2.528
   87GP001   C2  690   3.577   0.926   2.528
   87GP001   C3  691   3.701   0.855   2.528
   87GP001   C4  692   3.824   0.926   2.528
   87GP001   C5  693   3.824   1.068   2.528
   87GP001   C6  694   3.701   1.139   2.528
   87GP001   C7  695   3.577   1.068   2.528
   87GP001   C8  696   3.454   1.139   2.528
   88GP001   C1  697   3.454   1.282   2.528
   88GP001   C2  698   3.577   1.353   2.528
   88GP001   C3  699   3.701   1.282   2.528
   88GP001   C4  700   3.824   1.353   2.528
   88GP001   C5  701   3.824   1.496   2.528
   88GP001   C6  702   3.701   1.567   2.528
   88GP001   C7  703   3.577   1.496   2.528
   88GP001   C8  704   3.454   1.567   2.528
   89GP001   C1  705   3.454   1.709   2.528
   89GP001   C2  706   3.577   1.780   2.528
   89GP001   C3  707   3.701   1.709   2.528
   89GP001   C4  708   3.824   1.780   2.528
   89GP001   C5  709   3.824   1.923   2.528
   89GP001   C6  710   3.701   1.994   2.528
   89GP001   C7  711   3.577   1.923   2.528
   89GP001   C8  712   3.454   1.994   2.528
   90GP001   C1  713   3.454   2.137   2.528
   90GP001   C2  714   3.577   2.208   2.528
   90GP001   C3  715   3.701   2.137   2.528
   90GP001   C4  716   3.824   2.208   2.528
   90GP001   C5  717   3.824   2.350   2.528
   90GP001   C6  718   3.701   2.421   2.528
   90GP001   C7  719   3.577   2.350   2.528
   90GP001   C8  720   3.454   2.421   2.528
   91GP001   C1  721   3.454   2.564   2.528
   91GP001   C2  722   3.577   2.635   2.528
   91GP001   C3  723   3.701   2.564   2.528
   91GP001   C4  724   3.824   2.635   2.528
   91GP001   C5  725   3.824   2.777   2.528
   91GP001   C6  726   3.701   2.849   2.528
   91GP001   C7  727   3.577   2.777   2.528
   91GP001   C8  728   3.454   2.849   2.528
   92GP001   C1  729   3.454   2.991   2.528
   92GP001   C2  730   3.577   3.062   2.528
   92GP001   C3  731   3.701   2.991   2.528
   92GP001   C4  732   3.824   3.062   2.528
   92GP001   C5  733   3.824   3.205   2.528
   92GP001   C6  734   3.701   3.276   2.528
   92GP001   C7  735   3.577   3.205   2.528
   92GP001   C8  736   3.454   3.276   2.528
   93GP001   C1  737   3.454   3.418   2.528
   93GP001   C2  738   3.577   3.490   2.528
   93GP001   C3  739   3.701   3.418   2.528
   93GP001   C4  740   3.824   3.490   2.528
   93GP001   C5  741   3.824   3.632   2.528
   93GP001   C6  742   3.701   3.703   2.528
   93GP001   C7  743   3.577   3.632   2.528
   93GP001   C8  744   3.454   3.703   2.528
   94GP001   C1  745   3.454   3.846   2.528
   94GP001   C2  746   3.577   3.917   2.528
   94GP001   C3  747   3.701   3.846   2.528
   94GP001   C4  748   3.824   3.917   2.528
   94GP001   C5  749   3.824   4.059   2.528
   94GP001   C6  750   3.701   4.130   2.528
   94GP001   C7  751   3.577   4.059   2.528
   94GP001   C8  752   3.454   4.130   2.528
   95GP001   C1  753   3.454   4.273   2.528
   95GP001   C2  754   3.577   4.344   2.528
   95GP001   C3  755   3.701   4.273   2.528
   95GP001   C4  756   3.824   4.344   2.528
   95GP001   C5  757   3.824   4.487   2.528
   95GP001   C6  758   3.701   4.558   2.528
   95GP001   C7  759   3.577   4.487   2.528
   95GP001   C8  760   3.454   4.558   2.528
   96GP001   C1  761   3.454   4.700   2.528
   96GP001   C2  762   3.577   4.772   2.528
   96GP001   C3  763   3.701   4.700   2.528
   96GP001   C4  764   3.824   4.772   2.528
   96GP001   C5  765   3.824   4.914   2.528
   96GP001   C6  766   3.701   4.985   2.528
   96GP001   C7  767   3.577   4.914   2.528
   96GP001   C8  768   3.454   4.985   2.528
   97GP001   C1  769   3.947   0.000   2.528
   97GP001   C2  770   4.071   0.071   2.528
   97GP001   C3  771   4.194   0.000   2.528
   97GP001   C4  772   4.317   0.071   2.528
   97GP001   C5  773   4.317   0.214   2.528
   97GP001   C6  774   4.194   0.285   2.528
   97GP001   C7  775   4.071   0.214   2.528
   97GP001   C8  776   3.947   0.285   2.528
   98GP001   C1  777   3.947   0.427   2.528
   98GP001   C2  778   4.071   0.499   2.528
   98GP001   C3  779   4.194   0.427   2.528
   98GP001   C4  780   4.317   0.499   2.528
   98GP001   C5  781   4.317   0.641   2.528
   98GP001   C6  782   4.194   0.712   2.528
   98GP001   C7  783   4.071   0.641   2.528
   98GP001   C8  784   3.947   0.712   2.528
   99GP001   C1  785   3.947   0.855   2.528
   99GP001   C2  786   4.071   0.926   2.528
   99GP001   C3  787   4.194   0.855   2.528
   99GP001   C4  788   4.317   0.926   2.528
   99GP001   C5  789   4.317   1.068   2.528
   99GP001   C6  790   4.194   1.139   2.528
   99GP001   C7  791   4.071   1.068   2.528
   99GP001   C8  792   3.947   1.139   2.528
  100GP001   C1  793   3.947   1.282   2.528
  100GP001   C2  794   4.071   1.353   2.528
  100GP001   C3  795   4.194   1.282   2.528
  100GP001   C4  796   4.317   1.353   2.528
  100GP001   C5  797   4.317   1.496   2.528
  100GP001   C6  798   4.194   1.567   2.528
  100GP001   C7  799   4.071   1.496   2.528
  100GP001   C8  800   3.947   1.567   2.528
  101GP001   C1  801   3.947   1.709   2.528
  101GP001   C2  802   4.071   1.780   2.528
  101GP001   C3  803   4.194   1.709   2.528
  101GP001   C4  804   4.317   1.780   2.528
  101GP001   C5  805   4.317   1.923   2.528
  101GP001   C6  806   4.194   1.994   2.528
  101GP001   C7  807   4.071   1.923   2.528
  101GP001   C8  808   3.947   1.994   2.528
  102GP001   C1  809   3.947   2.137   2.528
  102GP001   C2  810   4.071   2.208   2.528
  102GP001   C3  811   4.194   2.137   2.528
  102GP001   C4  812   4.317   2.208   2.528
  102GP001   C5  813   4.317   2.350   2.528
  102GP001   C6  814   4.194   2.421   2.528
  102GP001   C7  815   4.071   2.350   2.528
  102GP001   C8  816   3.947   2.421   2.528
  103GP001   C1  817   3.947   2.564   2.528
  103GP001   C2  818   4.071   2.635   2.528
  103GP001   C3  819   4.194   2.564   2.528
  103GP001   C4  820   4.317   2.635   2.528
  103GP001   C5  821   4.317   2.777   2.528
  103GP001   C6  822   4.194   2.849   2.528
  103GP001   C7  823   4.071   2.777   2.528
  103GP001   C8  824   3.947   2.849   2.528
  104GP001   C1  825   3.947   2.991   2.528
  104GP001   C2  826   4.071   3.062   2.528
  104GP001   C3  827   4.194   2.991   2.528
  104GP001   C4  828   4.317   3.062   2.528
  104GP001   C5  829   4.317   3.205   2.528
  104GP001   C6  830   4.194   3.276   2.528
  104GP001   C7  831   4.071   3.205   2.528
  104GP001   C8  832   3.947   3.276   2.528
  105GP001   C1  833   3.947   3.418   2.528
  105GP001   C2  834   4.071   3.490   2.528
  105GP001   C3  835   4.194   3.418   2.528
  105GP001   C4  836   4.317   3.490   2.528
  105GP001   C5  837   4.317   3.632   2.528
  105GP001   C6  838   4.194   3.703   2.528
  105GP001   C7  839   4.071   3.632   2.528
  105GP001   C8  840   3.947   3.703   2.528
  106GP001   C1  841   3.947   3.846   2.528
  106GP001   C2  842   4.071   3.917   2.528
  106GP001   C3  843   4.194   3.846   2.528
  106GP001   C4  844   4.317   3.917   2.528
  106GP001   C5  845   4.317   4.059   2.528
  106GP001   C6  846   4.194   4.130   2.528
  106GP001   C7  847   4.071   4.059   2.528
  106GP001   C8  848   3.947   4.130   2.528
  107GP001   C1  849   3.947   4.273   2.528
  107GP001   C2  850   4.071   4.344   2.528
  107GP001   C3  851   4.194   4.273   2.528
  107GP001   C4  852   4.317   4.344   2.528
  107GP001   C5  853   4.317   4.487   2.528
  107GP001   C6  854   4.194   4.558   2.528
  107GP001   C7  855   4.071   4.487   2.528
  107GP001   C8  856   3.947   4.558   2.528
  108GP001   C1  857   3.947   4.700   2.528
  108GP001   C2  858   4.071   4.772   2.528
  108GP001   C3  859   4.194   4.700   2.528
  108GP001   C4  860   4.317   4.772   2.528
  108GP001   C5  861   4.317   4.914   2.528
  108GP001   C6  862   4.194   4.985   2.528
  108GP001   C7  863   4.071   4.914   2.528
  108GP001   C8  864   3.947   4.985   2.528
  109GP001   C1  865   4.441   0.000   2.528
  109GP001   C2  866   4.564   0.071   2.528
  109GP001   C3  867   4.687   0.000   2.528
  109GP001   C4  868   4.811   0.071   2.528
  109GP001   C5  869   4.811   0.214   2.528
  109GP001   C6  870   4.687   0.285   2.528
  109GP001   C7  871   4.564   0.214   2.528
  109GP001   C8  872   4.441   0.285   2.528
  110GP001   C1  873   4.441   0.427   2.528
  110GP001   C2  874   4.564   0.499   2.528
  110GP001   C3  875   4.687   0.427   2.528
  110GP001   C4  876   4.811   0.499   2.528
  110GP001   C5  877   4.811   0.641   2.528
  110GP001   C6  878   4.687   0.712   2.528
  110GP001   C7  879   4.564   0.641   2.528
  110GP001   C8  880   4.441   0.712   2.528
  111GP001   C1  881   4.441   0.855   2.528
  111GP001   C2  882   4.564   0.926   2.528
  111GP001   C3  883   4.687   0.855   2.528
  111GP001   C4  884   4.811   0.926   2.528
  111GP001   C5  885   4.811   1.068   2.528
  111GP001   C6  886   4.687   1.139   2.528
  111GP001   C7  887   4.564   1.068   2.528
  111GP001   C8  888   4.441   1.139   2.528
  112GP001   C1  889   4.441   1.282   2.528
  112GP001   C2  890   4.564   1.353   2.528
  112GP001   C3  891   4.687   1.282   2.528
  112GP001   C4  892   4.811   1.353   2.528
  112GP001   C5  893   4.811   1.496   2.528
  112GP001   C6  894   4.687   1.567   2.528
  112GP001   C7  895   4.564   1.496   2.528
  112GP001   C8  896   4.441   1.567   2.528
  113GP001   C1  897   4.441   1.709   2.528
  113GP001   C2  898   4.564   1.780   2.528
  113GP001   C3  899   4.687   1.709   2.528
  113GP001   C4  900   4.811   1.780   2.528
  113GP001   C5  901   4.811   1.923   2.528
  113GP001   C6  902   4.687   1.994   2.528
  113GP001   C7  903   4.564   1.923   2.528
  113GP001   C8  904   4.441   1.994   2.528
  114GP001   C1  905   4.441   2.137   2.528
  114GP001   C2  906   4.564   2.208   2.528
  114GP001   C3  907   4.687   2.137   2.528
  114GP001   C4  908   4.811   2.208   2.528
  114GP001   C5  909   4.811   2.350   2.528
  114GP001   C6  910   4.687   2.421   2.528
  114GP001   C7  911   4.564   2.350   2.528
  114GP001   C8  912   4.441   2.421   2.528
  115GP001   C1  913   4.441   2.564   2.528
  115GP001   C2  914   4.564   2.635   2.528
  115GP001   C3  915   4.687   2.564   2.528
  115GP001   C4  916   4.811   2.635   2.528
  115GP001   C5  917   4.811   2.777   2.528
  115GP001   C6  918   4.687   2.849   2.528
  115GP001   C7  919   4.564   2.777   2.528
  115GP001   C8  920   4.441   2.849   2.528
  116GP001   C1  921   4.441   2.991   2.528
  116GP001   C2  922   4.564   3.062   2.528
  116GP001   C3  923   4.687   2.991   2.528
  116GP001   C4  924   4.811   3.062   2.528
  116GP001   C5  925   4.811   3.205   2.528
  116GP001   C6  926   4.687   3.276   2.528
  116GP001   C7  927   4.564   3.205   2.528
  116GP001   C8  928   4.441   3.276   2.528
  117GP001   C1  929   4.441   3.418   2.528
  117GP001   C2  930   4.564   3.490   2.528
  117GP001   C3  931   4.687   3.418   2.528
  117GP001   C4  932   4.811   3.490   2.528
  117GP001   C5  933   4.811   3.632   2.528
  117GP001   C6  934   4.687   3.703   2.528
  117GP001   C7  935   4.564   3.632   2.528
  117GP001   C8  936   4.441   3.703   2.528
  118GP001   C1  937   4.441   3.846   2.528
  118GP001   C2  938   4.564   3.917   2.528
  118GP001   C3  939   4.687   3.846   2.528
  118GP001   C4  940   4.811   3.917   2.528
  118GP001   C5  941   4.811   4.059   2.528
  118GP001   C6  942   4.687   4.130   2.528
  118GP001   C7  943   4.564   4.059   2.528
  118GP001   C8  944   4.441   4.130   2.528
  119GP001   C1  945   4.441   4.273   2.528
  119GP001   C2  946   4.564   4.344   2.528
  119GP001   C3  947   4.687   4.273   2.528
  119GP001   C4  948   4.811   4.344   2.528
  119GP001   C5  949   4.811   4.487   2.528
  119GP001   C6  950   4.687   4.558   2.528
  119GP001   C7  951   4.564   4.487   2.528
  119GP001   C8  952   4.441   4.558   2.528
  120GP001   C1  953   4.441   4.700   2.528
  120GP001   C2  954   4.564   4.772   2.528
  120GP001   C3  955   4.687   4.700   2.528
  120GP001   C4  956   4.811   4.772   2.528
  120GP001   C5  957   4.811   4.914   2.528
  120GP001   C6  958   4.687   4.985   2.528
  120GP001   C7  959   4.564   4.914   2.528
  120GP001   C8  960   4.441   4.985   2.528
  121GP001   C1  961   4.934   0.000   2.528
  121GP001   C2  962   5.057   0.071   2.528
  121GP001   C3  963   5.181   0.000   2.528
  121GP001   C4  964   5.304   0.071   2.528
  121GP001   C5  965   5.304   0.214   2.528
  121GP001   C6  966   5.181   0.285   2.528
  121GP001   C7  967   5.057   0.214   2.528
  121GP001   C8  968   4.934   0.285   2.528
  122GP001   C1  969   4.934   0.427   2.528
  122GP001   C2  970   5.057   0.499   2.528
  122GP001   C3  971   5.181   0.427   2.528
  122GP001   C4  972   5.304   0.499   2.528
  122GP001   C5  973   5.304   0.641   2.528
  122GP001   C6  974   5.181   0.712   2.528
  122GP001   C7  975   5.057   0.641   2.528
  122GP001   C8  976   4.934   0.712   2.528
  123GP001   C1  977   4.934   0.855   2.528
  123GP001   C2  978   5.057   0.926   2.528
  123GP001   C3  979   5.181   0.855   2.528
  123GP001   C4  980   5.304   0.926   2.528
  123GP001   C5  981   5.304   1.068   2.528
  123GP001   C6  982   5.181   1.139   2.528
  123GP001   C7  983   5.057   1.068   2.528
  123GP001   C8  984   4.934   1.139   2.528
  124GP001   C1  985   4.934   1.282   2.528
  124GP001   C2  986   5.057   1.353   2.528
  124GP001   C3  987   5.181   1.282   2.528
  124GP001   C4  988   5.304   1.353   2.528
  124GP001   C5  989   5.304   1.496   2.528
  124GP001   C6  990   5.181   1.567   2.528
  124GP001   C7  991   5.057   1.496   2.528
  124GP001   C8  992   4.934   1.567   2.528
  125GP001   C1  993   4.934   1.709   2.528
  125GP001   C2  994   5.057   1.780   2.528
  125GP001   C3  995   5.181   1.709   2.528
  125GP001   C4  996   5.304   1.780   2.528
  125GP001   C5  997   5.304   1.923   2.528
  125GP001   C6  998   5.181   1.994   2.528
  125GP001   C7  999   5.057   1.923   2.528
  125GP001   C8 1000   4.934   1.994   2.528
  126GP001   C1 1001   4.934   2.137   2.528
  126GP001   C2 1002   5.057   2.208   2.528
  126GP001   C3 1003   5.181   2.137   2.528
  126GP001   C4 1004   5.304   2.208   2.528
  126GP001   C5 1005   5.304   2.350   2.528
  126GP001   C6 1006   5.181   2.421   2.528
  126GP001   C7 1007   5.057   2.350   2.528
  126GP001   C8 1008   4.934   2.421   2.528
  127GP001   C1 1009   4.934   2.564   2.528
  127GP001   C2 1010   5.057   2.635   2.528
  127GP001   C3 1011   5.181   2.564   2.528
  127GP001   C4 1012   5.304   2.635   2.528
  127GP001   C5 1013   5.304   2.777   2.528
  127GP001   C6 1014   5.181   2.849   2.528
  127GP001   C7 1015   5.057   2.777   2.528
  127GP001   C8 1016   4.934   2.849   2.528
  128GP001   C1 1017   4.934   2.991   2.528
  128GP001   C2 1018   5.057   3.062   2.528
  128GP001   C3 1019   5.181   2.991   2.528
  128GP001   C4 1020   5.304   3.062   2.528
  128GP001   C5 1021   5.304   3.205   2.528
  128GP001   C6 1022   5.181   3.276   2.528
  128GP001   C7 1023   5.057   3.205   2.528
  128GP001   C8 1024   4.934   3.276   2.528
  129GP001   C1 1025   4.934   3.418   2.528
  129GP001   C2 1026   5.057   3.490   2.528
  129GP001   C3 1027   5.181   3.418   2.528
  129GP001   C4 1028   5.304   3.490   2.528
  129GP001   C5 1029   5.304   3.632   2.528
  129GP001   C6 1030   5.181   3.703   2.528
  129GP001   C7 1031   5.057   3.632   2.528
  129GP001   C8 1032   4.934   3.703   2.528
  130GP001   C1 1033   4.934   3.846   2.528
  130GP001   C2 1034   5.057   3.917   2.528
  130GP001   C3 1035   5.181   3.846   2.528
  130GP001   C4 1036   5.304   3.917   2.528
  130GP001   C5 1037   5.304   4.059   2.528
  130GP001   C6 1038   5.181   4.130   2.528
  130GP001   C7 1039   5.057   4.059   2.528
  130GP001   C8 1040   4.934   4.130   2.528
  131GP001   C1 1041   4.934   4.273   2.528
  131GP001   C2 1042   5.057   4.344   2.528
  131GP001   C3 1043   5.181   4.273   2.528
  131GP001   C4 1044   5.304   4.344   2.528
  131GP001   C5 1045   5.304   4.487   2.528
  131GP001   C6 1046   5.181   4.558   2.528
  131GP001   C7 1047   5.057   4.487   2.528
  131GP001   C8 1048   4.934   4.558   2.528
  132GP001   C1 1049   4.934   4.700   2.528
  132GP001   C2 1050   5.057   4.772   2.528
  132GP001   C3 1051   5.181   4.700   2.528
  132GP001   C4 1052   5.304   4.772   2.528
  132GP001   C5 1053   5.304   4.914   2.528
  132GP001   C6 1054   5.181   4.985   2.528
  132GP001   C7 1055   5.057   4.914   2.528
  132GP001   C8 1056   4.934   4.985   2.528
   5.42740   5.12760   10.00000
