Title
  448
    1GP001   C1    1   0.000   0.000   1.728
    1GP001   C2    2   0.123   0.071   1.728
    1GP001   C3    3   0.247   0.000   1.728
    1GP001   C4    4   0.370   0.071   1.728
    1GP001   C5    5   0.370   0.214   1.728
    1GP001   C6    6   0.247   0.285   1.728
    1GP001   C7    7   0.123   0.214   1.728
    1GP001   C8    8   0.000   0.285   1.728
    2GP001   C1    9   0.000   0.427   1.728
    2GP001   C2   10   0.123   0.498   1.728
    2GP001   C3   11   0.247   0.427   1.728
    2GP001   C4   12   0.370   0.498   1.728
    2GP001   C5   13   0.370   0.641   1.728
    2GP001   C6   14   0.247   0.712   1.728
    2GP001   C7   15   0.123   0.641   1.728
    2GP001   C8   16   0.000   0.712   1.728
    3GP001   C1   17   0.000   0.855   1.728
    3GP001   C2   18   0.123   0.926   1.728
    3GP001   C3   19   0.247   0.855   1.728
    3GP001   C4   20   0.370   0.926   1.728
    3GP001   C5   21   0.370   1.068   1.728
    3GP001   C6   22   0.247   1.139   1.728
    3GP001   C7   23   0.123   1.068   1.728
    3GP001   C8   24   0.000   1.139   1.728
    4GP001   C1   25   0.000   1.282   1.728
    4GP001   C2   26   0.123   1.353   1.728
    4GP001   C3   27   0.247   1.282   1.728
    4GP001   C4   28   0.370   1.353   1.728
    4GP001   C5   29   0.370   1.495   1.728
    4GP001   C6   30   0.247   1.567   1.728
    4GP001   C7   31   0.123   1.495   1.728
    4GP001   C8   32   0.000   1.567   1.728
    5GP001   C1   33   0.000   1.709   1.728
    5GP001   C2   34   0.123   1.780   1.728
    5GP001   C3   35   0.247   1.709   1.728
    5GP001   C4   36   0.370   1.780   1.728
    5GP001   C5   37   0.370   1.923   1.728
    5GP001   C6   38   0.247   1.994   1.728
    5GP001   C7   39   0.123   1.923   1.728
    5GP001   C8   40   0.000   1.994   1.728
    6GP001   C1   41   0.000   2.136   1.728
    6GP001   C2   42   0.123   2.208   1.728
    6GP001   C3   43   0.247   2.136   1.728
    6GP001   C4   44   0.370   2.208   1.728
    6GP001   C5   45   0.370   2.350   1.728
    6GP001   C6   46   0.247   2.421   1.728
    6GP001   C7   47   0.123   2.350   1.728
    6GP001   C8   48   0.000   2.421   1.728
    7GP001   C1   49   0.000   2.564   1.728
    7GP001   C2   50   0.123   2.635   1.728
    7GP001   C3   51   0.247   2.564   1.728
    7GP001   C4   52   0.370   2.635   1.728
    7GP001   C5   53   0.370   2.777   1.728
    7GP001   C6   54   0.247   2.849   1.728
    7GP001   C7   55   0.123   2.777   1.728
    7GP001   C8   56   0.000   2.849   1.728
    8GP001   C1   57   0.000   2.991   1.728
    8GP001   C2   58   0.123   3.062   1.728
    8GP001   C3   59   0.247   2.991   1.728
    8GP001   C4   60   0.370   3.062   1.728
    8GP001   C5   61   0.370   3.205   1.728
    8GP001   C6   62   0.247   3.276   1.728
    8GP001   C7   63   0.123   3.205   1.728
    8GP001   C8   64   0.000   3.276   1.728
    9GP001   C1   65   0.493   0.000   1.728
    9GP001   C2   66   0.617   0.071   1.728
    9GP001   C3   67   0.740   0.000   1.728
    9GP001   C4   68   0.863   0.071   1.728
    9GP001   C5   69   0.863   0.214   1.728
    9GP001   C6   70   0.740   0.285   1.728
    9GP001   C7   71   0.617   0.214   1.728
    9GP001   C8   72   0.493   0.285   1.728
   10GP001   C1   73   0.493   0.427   1.728
   10GP001   C2   74   0.617   0.498   1.728
   10GP001   C3   75   0.740   0.427   1.728
   10GP001   C4   76   0.863   0.498   1.728
   10GP001   C5   77   0.863   0.641   1.728
   10GP001   C6   78   0.740   0.712   1.728
   10GP001   C7   79   0.617   0.641   1.728
   10GP001   C8   80   0.493   0.712   1.728
   11GP001   C1   81   0.493   0.855   1.728
   11GP001   C2   82   0.617   0.926   1.728
   11GP001   C3   83   0.740   0.855   1.728
   11GP001   C4   84   0.863   0.926   1.728
   11GP001   C5   85   0.863   1.068   1.728
   11GP001   C6   86   0.740   1.139   1.728
   11GP001   C7   87   0.617   1.068   1.728
   11GP001   C8   88   0.493   1.139   1.728
   12GP001   C1   89   0.493   1.282   1.728
   12GP001   C2   90   0.617   1.353   1.728
   12GP001   C3   91   0.740   1.282   1.728
   12GP001   C4   92   0.863   1.353   1.728
   12GP001   C5   93   0.863   1.495   1.728
   12GP001   C6   94   0.740   1.567   1.728
   12GP001   C7   95   0.617   1.495   1.728
   12GP001   C8   96   0.493   1.567   1.728
   13GP001   C1   97   0.493   1.709   1.728
   13GP001   C2   98   0.617   1.780   1.728
   13GP001   C3   99   0.740   1.709   1.728
   13GP001   C4  100   0.863   1.780   1.728
   13GP001   C5  101   0.863   1.923   1.728
   13GP001   C6  102   0.740   1.994   1.728
   13GP001   C7  103   0.617   1.923   1.728
   13GP001   C8  104   0.493   1.994   1.728
   14GP001   C1  105   0.493   2.136   1.728
   14GP001   C2  106   0.617   2.208   1.728
   14GP001   C3  107   0.740   2.136   1.728
   14GP001   C4  108   0.863   2.208   1.728
   14GP001   C5  109   0.863   2.350   1.728
   14GP001   C6  110   0.740   2.421   1.728
   14GP001   C7  111   0.617   2.350   1.728
   14GP001   C8  112   0.493   2.421   1.728
   15GP001   C1  113   0.493   2.564   1.728
   15GP001   C2  114   0.617   2.635   1.728
   15GP001   C3  115   0.740   2.564   1.728
   15GP001   C4  116   0.863   2.635   1.728
   15GP001   C5  117   0.863   2.777   1.728
   15GP001   C6  118   0.740   2.849   1.728
   15GP001   C7  119   0.617   2.777   1.728
   15GP001   C8  120   0.493   2.849   1.728
   16GP001   C1  121   0.493   2.991   1.728
   16GP001   C2  122   0.617   3.062   1.728
   16GP001   C3  123   0.740   2.991   1.728
   16GP001   C4  124   0.863   3.062   1.728
   16GP001   C5  125   0.863   3.205   1.728
   16GP001   C6  126   0.740   3.276   1.728
   16GP001   C7  127   0.617   3.205   1.728
   16GP001   C8  128   0.493   3.276   1.728
   17GP001   C1  129   0.987   0.000   1.728
   17GP001   C2  130   1.110   0.071   1.728
   17GP001   C3  131   1.233   0.000   1.728
   17GP001   C4  132   1.357   0.071   1.728
   17GP001   C5  133   1.357   0.214   1.728
   17GP001   C6  134   1.233   0.285   1.728
   17GP001   C7  135   1.110   0.214   1.728
   17GP001   C8  136   0.987   0.285   1.728
   18GP001   C1  137   0.987   0.427   1.728
   18GP001   C2  138   1.110   0.498   1.728
   18GP001   C3  139   1.233   0.427   1.728
   18GP001   C4  140   1.357   0.498   1.728
   18GP001   C5  141   1.357   0.641   1.728
   18GP001   C6  142   1.233   0.712   1.728
   18GP001   C7  143   1.110   0.641   1.728
   18GP001   C8  144   0.987   0.712   1.728
   19GP001   C1  145   0.987   0.855   1.728
   19GP001   C2  146   1.110   0.926   1.728
   19GP001   C3  147   1.233   0.855   1.728
   19GP001   C4  148   1.357   0.926   1.728
   19GP001   C5  149   1.357   1.068   1.728
   19GP001   C6  150   1.233   1.139   1.728
   19GP001   C7  151   1.110   1.068   1.728
   19GP001   C8  152   0.987   1.139   1.728
   20GP001   C1  153   0.987   1.282   1.728
   20GP001   C2  154   1.110   1.353   1.728
   20GP001   C3  155   1.233   1.282   1.728
   20GP001   C4  156   1.357   1.353   1.728
   20GP001   C5  157   1.357   1.495   1.728
   20GP001   C6  158   1.233   1.567   1.728
   20GP001   C7  159   1.110   1.495   1.728
   20GP001   C8  160   0.987   1.567   1.728
   21GP001   C1  161   0.987   1.709   1.728
   21GP001   C2  162   1.110   1.780   1.728
   21GP001   C3  163   1.233   1.709   1.728
   21GP001   C4  164   1.357   1.780   1.728
   21GP001   C5  165   1.357   1.923   1.728
   21GP001   C6  166   1.233   1.994   1.728
   21GP001   C7  167   1.110   1.923   1.728
   21GP001   C8  168   0.987   1.994   1.728
   22GP001   C1  169   0.987   2.136   1.728
   22GP001   C2  170   1.110   2.208   1.728
   22GP001   C3  171   1.233   2.136   1.728
   22GP001   C4  172   1.357   2.208   1.728
   22GP001   C5  173   1.357   2.350   1.728
   22GP001   C6  174   1.233   2.421   1.728
   22GP001   C7  175   1.110   2.350   1.728
   22GP001   C8  176   0.987   2.421   1.728
   23GP001   C1  177   0.987   2.564   1.728
   23GP001   C2  178   1.110   2.635   1.728
   23GP001   C3  179   1.233   2.564   1.728
   23GP001   C4  180   1.357   2.635   1.728
   23GP001   C5  181   1.357   2.777   1.728
   23GP001   C6  182   1.233   2.849   1.728
   23GP001   C7  183   1.110   2.777   1.728
   23GP001   C8  184   0.987   2.849   1.728
   24GP001   C1  185   0.987   2.991   1.728
   24GP001   C2  186   1.110   3.062   1.728
   24GP001   C3  187   1.233   2.991   1.728
   24GP001   C4  188   1.357   3.062   1.728
   24GP001   C5  189   1.357   3.205   1.728
   24GP001   C6  190   1.233   3.276   1.728
   24GP001   C7  191   1.110   3.205   1.728
   24GP001   C8  192   0.987   3.276   1.728
   25GP001   C1  193   1.480   0.000   1.728
   25GP001   C2  194   1.604   0.071   1.728
   25GP001   C3  195   1.727   0.000   1.728
   25GP001   C4  196   1.850   0.071   1.728
   25GP001   C5  197   1.850   0.214   1.728
   25GP001   C6  198   1.727   0.285   1.728
   25GP001   C7  199   1.604   0.214   1.728
   25GP001   C8  200   1.480   0.285   1.728
   26GP001   C1  201   1.480   0.427   1.728
   26GP001   C2  202   1.604   0.498   1.728
   26GP001   C3  203   1.727   0.427   1.728
   26GP001   C4  204   1.850   0.498   1.728
   26GP001   C5  205   1.850   0.641   1.728
   26GP001   C6  206   1.727   0.712   1.728
   26GP001   C7  207   1.604   0.641   1.728
   26GP001   C8  208   1.480   0.712   1.728
   27GP001   C1  209   1.480   0.855   1.728
   27GP001   C2  210   1.604   0.926   1.728
   27GP001   C3  211   1.727   0.855   1.728
   27GP001   C4  212   1.850   0.926   1.728
   27GP001   C5  213   1.850   1.068   1.728
   27GP001   C6  214   1.727   1.139   1.728
   27GP001   C7  215   1.604   1.068   1.728
   27GP001   C8  216   1.480   1.139   1.728
   28GP001   C1  217   1.480   1.282   1.728
   28GP001   C2  218   1.604   1.353   1.728
   28GP001   C3  219   1.727   1.282   1.728
   28GP001   C4  220   1.850   1.353   1.728
   28GP001   C5  221   1.850   1.495   1.728
   28GP001   C6  222   1.727   1.567   1.728
   28GP001   C7  223   1.604   1.495   1.728
   28GP001   C8  224   1.480   1.567   1.728
   29GP001   C1  225   1.480   1.709   1.728
   29GP001   C2  226   1.604   1.780   1.728
   29GP001   C3  227   1.727   1.709   1.728
   29GP001   C4  228   1.850   1.780   1.728
   29GP001   C5  229   1.850   1.923   1.728
   29GP001   C6  230   1.727   1.994   1.728
   29GP001   C7  231   1.604   1.923   1.728
   29GP001   C8  232   1.480   1.994   1.728
   30GP001   C1  233   1.480   2.136   1.728
   30GP001   C2  234   1.604   2.208   1.728
   30GP001   C3  235   1.727   2.136   1.728
   30GP001   C4  236   1.850   2.208   1.728
   30GP001   C5  237   1.850   2.350   1.728
   30GP001   C6  238   1.727   2.421   1.728
   30GP001   C7  239   1.604   2.350   1.728
   30GP001   C8  240   1.480   2.421   1.728
   31GP001   C1  241   1.480   2.564   1.728
   31GP001   C2  242   1.604   2.635   1.728
   31GP001   C3  243   1.727   2.564   1.728
   31GP001   C4  244   1.850   2.635   1.728
   31GP001   C5  245   1.850   2.777   1.728
   31GP001   C6  246   1.727   2.849   1.728
   31GP001   C7  247   1.604   2.777   1.728
   31GP001   C8  248   1.480   2.849   1.728
   32GP001   C1  249   1.480   2.991   1.728
   32GP001   C2  250   1.604   3.062   1.728
   32GP001   C3  251   1.727   2.991   1.728
   32GP001   C4  252   1.850   3.062   1.728
   32GP001   C5  253   1.850   3.205   1.728
   32GP001   C6  254   1.727   3.276   1.728
   32GP001   C7  255   1.604   3.205   1.728
   32GP001   C8  256   1.480   3.276   1.728
   33GP001   C1  257   1.974   0.000   1.728
   33GP001   C2  258   2.097   0.071   1.728
   33GP001   C3  259   2.220   0.000   1.728
   33GP001   C4  260   2.344   0.071   1.728
   33GP001   C5  261   2.344   0.214   1.728
   33GP001   C6  262   2.220   0.285   1.728
   33GP001   C7  263   2.097   0.214   1.728
   33GP001   C8  264   1.974   0.285   1.728
   34GP001   C1  265   1.974   0.427   1.728
   34GP001   C2  266   2.097   0.498   1.728
   34GP001   C3  267   2.220   0.427   1.728
   34GP001   C4  268   2.344   0.498   1.728
   34GP001   C5  269   2.344   0.641   1.728
   34GP001   C6  270   2.220   0.712   1.728
   34GP001   C7  271   2.097   0.641   1.728
   34GP001   C8  272   1.974   0.712   1.728
   35GP001   C1  273   1.974   0.855   1.728
   35GP001   C2  274   2.097   0.926   1.728
   35GP001   C3  275   2.220   0.855   1.728
   35GP001   C4  276   2.344   0.926   1.728
   35GP001   C5  277   2.344   1.068   1.728
   35GP001   C6  278   2.220   1.139   1.728
   35GP001   C7  279   2.097   1.068   1.728
   35GP001   C8  280   1.974   1.139   1.728
   36GP001   C1  281   1.974   1.282   1.728
   36GP001   C2  282   2.097   1.353   1.728
   36GP001   C3  283   2.220   1.282   1.728
   36GP001   C4  284   2.344   1.353   1.728
   36GP001   C5  285   2.344   1.495   1.728
   36GP001   C6  286   2.220   1.567   1.728
   36GP001   C7  287   2.097   1.495   1.728
   36GP001   C8  288   1.974   1.567   1.728
   37GP001   C1  289   1.974   1.709   1.728
   37GP001   C2  290   2.097   1.780   1.728
   37GP001   C3  291   2.220   1.709   1.728
   37GP001   C4  292   2.344   1.780   1.728
   37GP001   C5  293   2.344   1.923   1.728
   37GP001   C6  294   2.220   1.994   1.728
   37GP001   C7  295   2.097   1.923   1.728
   37GP001   C8  296   1.974   1.994   1.728
   38GP001   C1  297   1.974   2.136   1.728
   38GP001   C2  298   2.097   2.208   1.728
   38GP001   C3  299   2.220   2.136   1.728
   38GP001   C4  300   2.344   2.208   1.728
   38GP001   C5  301   2.344   2.350   1.728
   38GP001   C6  302   2.220   2.421   1.728
   38GP001   C7  303   2.097   2.350   1.728
   38GP001   C8  304   1.974   2.421   1.728
   39GP001   C1  305   1.974   2.564   1.728
   39GP001   C2  306   2.097   2.635   1.728
   39GP001   C3  307   2.220   2.564   1.728
   39GP001   C4  308   2.344   2.635   1.728
   39GP001   C5  309   2.344   2.777   1.728
   39GP001   C6  310   2.220   2.849   1.728
   39GP001   C7  311   2.097   2.777   1.728
   39GP001   C8  312   1.974   2.849   1.728
   40GP001   C1  313   1.974   2.991   1.728
   40GP001   C2  314   2.097   3.062   1.728
   40GP001   C3  315   2.220   2.991   1.728
   40GP001   C4  316   2.344   3.062   1.728
   40GP001   C5  317   2.344   3.205   1.728
   40GP001   C6  318   2.220   3.276   1.728
   40GP001   C7  319   2.097   3.205   1.728
   40GP001   C8  320   1.974   3.276   1.728
   41GP001   C1  321   2.467   0.000   1.728
   41GP001   C2  322   2.590   0.071   1.728
   41GP001   C3  323   2.714   0.000   1.728
   41GP001   C4  324   2.837   0.071   1.728
   41GP001   C5  325   2.837   0.214   1.728
   41GP001   C6  326   2.714   0.285   1.728
   41GP001   C7  327   2.590   0.214   1.728
   41GP001   C8  328   2.467   0.285   1.728
   42GP001   C1  329   2.467   0.427   1.728
   42GP001   C2  330   2.590   0.498   1.728
   42GP001   C3  331   2.714   0.427   1.728
   42GP001   C4  332   2.837   0.498   1.728
   42GP001   C5  333   2.837   0.641   1.728
   42GP001   C6  334   2.714   0.712   1.728
   42GP001   C7  335   2.590   0.641   1.728
   42GP001   C8  336   2.467   0.712   1.728
   43GP001   C1  337   2.467   0.855   1.728
   43GP001   C2  338   2.590   0.926   1.728
   43GP001   C3  339   2.714   0.855   1.728
   43GP001   C4  340   2.837   0.926   1.728
   43GP001   C5  341   2.837   1.068   1.728
   43GP001   C6  342   2.714   1.139   1.728
   43GP001   C7  343   2.590   1.068   1.728
   43GP001   C8  344   2.467   1.139   1.728
   44GP001   C1  345   2.467   1.282   1.728
   44GP001   C2  346   2.590   1.353   1.728
   44GP001   C3  347   2.714   1.282   1.728
   44GP001   C4  348   2.837   1.353   1.728
   44GP001   C5  349   2.837   1.495   1.728
   44GP001   C6  350   2.714   1.567   1.728
   44GP001   C7  351   2.590   1.495   1.728
   44GP001   C8  352   2.467   1.567   1.728
   45GP001   C1  353   2.467   1.709   1.728
   45GP001   C2  354   2.590   1.780   1.728
   45GP001   C3  355   2.714   1.709   1.728
   45GP001   C4  356   2.837   1.780   1.728
   45GP001   C5  357   2.837   1.923   1.728
   45GP001   C6  358   2.714   1.994   1.728
   45GP001   C7  359   2.590   1.923   1.728
   45GP001   C8  360   2.467   1.994   1.728
   46GP001   C1  361   2.467   2.136   1.728
   46GP001   C2  362   2.590   2.208   1.728
   46GP001   C3  363   2.714   2.136   1.728
   46GP001   C4  364   2.837   2.208   1.728
   46GP001   C5  365   2.837   2.350   1.728
   46GP001   C6  366   2.714   2.421   1.728
   46GP001   C7  367   2.590   2.350   1.728
   46GP001   C8  368   2.467   2.421   1.728
   47GP001   C1  369   2.467   2.564   1.728
   47GP001   C2  370   2.590   2.635   1.728
   47GP001   C3  371   2.714   2.564   1.728
   47GP001   C4  372   2.837   2.635   1.728
   47GP001   C5  373   2.837   2.777   1.728
   47GP001   C6  374   2.714   2.849   1.728
   47GP001   C7  375   2.590   2.777   1.728
   47GP001   C8  376   2.467   2.849   1.728
   48GP001   C1  377   2.467   2.991   1.728
   48GP001   C2  378   2.590   3.062   1.728
   48GP001   C3  379   2.714   2.991   1.728
   48GP001   C4  380   2.837   3.062   1.728
   48GP001   C5  381   2.837   3.205   1.728
   48GP001   C6  382   2.714   3.276   1.728
   48GP001   C7  383   2.590   3.205   1.728
   48GP001   C8  384   2.467   3.276   1.728
   49GP001   C1  385   2.960   0.000   1.728
   49GP001   C2  386   3.084   0.071   1.728
   49GP001   C3  387   3.207   0.000   1.728
   49GP001   C4  388   3.330   0.071   1.728
   49GP001   C5  389   3.330   0.214   1.728
   49GP001   C6  390   3.207   0.285   1.728
   49GP001   C7  391   3.084   0.214   1.728
   49GP001   C8  392   2.960   0.285   1.728
   50GP001   C1  393   2.960   0.427   1.728
   50GP001   C2  394   3.084   0.498   1.728
   50GP001   C3  395   3.207   0.427   1.728
   50GP001   C4  396   3.330   0.498   1.728
   50GP001   C5  397   3.330   0.641   1.728
   50GP001   C6  398   3.207   0.712   1.728
   50GP001   C7  399   3.084   0.641   1.728
   50GP001   C8  400   2.960   0.712   1.728
   51GP001   C1  401   2.960   0.855   1.728
   51GP001   C2  402   3.084   0.926   1.728
   51GP001   C3  403   3.207   0.855   1.728
   51GP001   C4  404   3.330   0.926   1.728
   51GP001   C5  405   3.330   1.068   1.728
   51GP001   C6  406   3.207   1.139   1.728
   51GP001   C7  407   3.084   1.068   1.728
   51GP001   C8  408   2.960   1.139   1.728
   52GP001   C1  409   2.960   1.282   1.728
   52GP001   C2  410   3.084   1.353   1.728
   52GP001   C3  411   3.207   1.282   1.728
   52GP001   C4  412   3.330   1.353   1.728
   52GP001   C5  413   3.330   1.495   1.728
   52GP001   C6  414   3.207   1.567   1.728
   52GP001   C7  415   3.084   1.495   1.728
   52GP001   C8  416   2.960   1.567   1.728
   53GP001   C1  417   2.960   1.709   1.728
   53GP001   C2  418   3.084   1.780   1.728
   53GP001   C3  419   3.207   1.709   1.728
   53GP001   C4  420   3.330   1.780   1.728
   53GP001   C5  421   3.330   1.923   1.728
   53GP001   C6  422   3.207   1.994   1.728
   53GP001   C7  423   3.084   1.923   1.728
   53GP001   C8  424   2.960   1.994   1.728
   54GP001   C1  425   2.960   2.136   1.728
   54GP001   C2  426   3.084   2.208   1.728
   54GP001   C3  427   3.207   2.136   1.728
   54GP001   C4  428   3.330   2.208   1.728
   54GP001   C5  429   3.330   2.350   1.728
   54GP001   C6  430   3.207   2.421   1.728
   54GP001   C7  431   3.084   2.350   1.728
   54GP001   C8  432   2.960   2.421   1.728
   55GP001   C1  433   2.960   2.564   1.728
   55GP001   C2  434   3.084   2.635   1.728
   55GP001   C3  435   3.207   2.564   1.728
   55GP001   C4  436   3.330   2.635   1.728
   55GP001   C5  437   3.330   2.777   1.728
   55GP001   C6  438   3.207   2.849   1.728
   55GP001   C7  439   3.084   2.777   1.728
   55GP001   C8  440   2.960   2.849   1.728
   56GP001   C1  441   2.960   2.991   1.728
   56GP001   C2  442   3.084   3.062   1.728
   56GP001   C3  443   3.207   2.991   1.728
   56GP001   C4  444   3.330   3.062   1.728
   56GP001   C5  445   3.330   3.205   1.728
   56GP001   C6  446   3.207   3.276   1.728
   56GP001   C7  447   3.084   3.205   1.728
   56GP001   C8  448   2.960   3.276   1.728
   3.45380   3.41840   3.40000
