
10
    1UNL      C    1  -0.029  -0.034   0.000
    1UNL     N1    2  -0.082   0.088   0.000
    1UNL     N2    3   0.104  -0.050  -0.000
    1UNL     N3    4  -0.109  -0.141   0.000
    1UNL     H1    5  -0.022   0.167   0.000
    1UNL     H2    6  -0.180   0.099   0.000
    1UNL     H3    7   0.163   0.030  -0.000
    1UNL     H4    8   0.142  -0.142  -0.000
    1UNL     H5    9  -0.207  -0.129   0.000
    1UNL     H6   10  -0.069  -0.232   0.000
   10.00000  10.00000   10.00000

