Gromacs Runs On Most of All Computer Systems
   18
    1MXY     CG    1   0.162   0.046   0.163
    1MXY     HG    2   0.216  -0.034   0.212
    1MXY    CD1    3   0.209   0.101   0.044
    1MXY    HD1    4   0.301   0.064  -0.000
    1MXY    CD2    5   0.043   0.094   0.221
    1MXY    CE1    6   0.138   0.205  -0.019
    1MXY    HE1    7   0.175   0.247  -0.111
    1MXY    CE2    8  -0.028   0.197   0.158
    1MXY    HE2    9  -0.119   0.234   0.202
    1MXY     CZ   10   0.020   0.253   0.038
    1MXY     C1   11  -0.057   0.363  -0.029
    1MXY    H11   12  -0.130   0.317  -0.099
    1MXY    H12   13   0.013   0.429  -0.084
    1MXY    H13   14  -0.111   0.423   0.048
    1MXY     C2   15  -0.008   0.036   0.349
    1MXY    H21   16   0.035   0.093   0.433
    1MXY    H22   17   0.022  -0.071   0.356
    1MXY    H23   18  -0.119   0.042   0.352
   5.42740   5.12760   5.00000
