;;
;; Generated by CHARMM-GUI (http://www.charmm-gui.org) v1.7
;;
;; psf2itp_mol.py
;;
;; Correspondance:
;; jul316@lehigh.edu or wonpil@lehigh.edu
;;
;; CHARMM36 FF in GROMACS format
;;


[ defaults ]
; nbfunc	comb-rule	gen-pairs	fudgeLJ	fudgeQQ
1	2	yes	1.0	1.0

[ atomtypes ]
; name	at.num	mass	charge	ptype	sigma	epsilon	;	sigma_14	epsilon_14
   Cbenz     6    12.0110     -0.115     A    3.55005321205e-01    2.928800e-01 
   CG331     6    12.0110     -0.270     A    3.65268474438e-01    3.263520e-01 ;   3.38541512893e-01    4.184000e-02 
    HGA3     1     1.0080      0.090     A    2.38760856462e-01    1.004160e-01 
   HGR61     1     1.0080      0.115     A    2.42003727796e-01    1.255200e-01 
      HT     1     1.0080      0.417     A    4.00013524445e-02    1.924640e-01 
  CG2R61     6    12.0110      0.000     A    3.55005321205e-01    2.928800e-01 
      OT     8    15.9994     -0.834     A    3.15057422683e-01    6.363864e-01 
     CLA    17    35.4500     -1.000     A    4.04468018036e-01    6.276000e-01 
     POT    19    39.0983      1.000     A    3.14264522824e-01    3.640080e-01 
      CA     6    12.0110     -0.115     A    3.55005321205e-01    2.928800e-01 
      HP     1     1.0080      0.115     A    2.42003727796e-01    1.255200e-01 ;   2.42003727796e-01    1.255200e-01 
     
[ nonbond_params ]
; i	j	func	sigma	epsilon
    CLA     POT     1  3.63575766873e-01  4.77812800000e-01 

[ bondtypes ]
; i	j	func	b0	Kb
  Cbenz   Cbenz     1  1.375000e-01  2.552240e+05
  Cbenz   CG331     1  1.490000e-01  1.924640e+05
  Cbenz   HGR61     1  1.080000e-01  2.845120e+05
  CG331   CG331     1  1.530000e-01  1.861880e+05
  CG331    HGA3     1  1.111000e-01  2.694496e+05
 CG2R61  CG2R61     1  1.375000e-01  2.552240e+05
     HT      HT     1  1.513900e-01  0.000000e+00
     HT      OT     1  9.572000e-02  3.765600e+05
     CA      CA     1  1.375000e-01  2.552240e+05
     HP      CA     1  1.080000e-01  2.845120e+05

[ pairtypes ]
; i	j	func	sigma1-4	epsilon1-4
  Cbenz   CG331     1  3.46773417049e-01  1.10698234855e-01 
  CG331   CG331     1  3.38541512893e-01  4.18400000000e-02 
  CG331    HGA3     1  2.88651184677e-01  6.48182492821e-02 
  CG331   HGR61     1  2.90272620344e-01  7.24690057887e-02 
     CA      HP     1  2.98504524500e-01  1.91734967077e-01 
     HP      HP     1  2.42003727796e-01  1.25520000000e-01 

[ angletypes ]
; i	j	k	func	th0	cth	S0	Kub
  Cbenz   Cbenz   Cbenz     5  1.2000000e+02  3.3472000e+02  2.4162000e-01  2.9288000e+04
  Cbenz   Cbenz   CG331     5  1.2000000e+02  3.8325440e+02  0.0000000e+00  0.0000000e+00
  Cbenz   Cbenz   HGR61     5  1.2000000e+02  2.5104000e+02  2.1525000e-01  1.8409600e+04
  Cbenz   CG331    HGA3     5  1.0750000e+02  4.1254240e+02  0.0000000e+00  0.0000000e+00
  CG331   CG331    HGA3     5  1.1010000e+02  3.1380000e+02  2.1790000e-01  1.8853104e+04
   HGA3   CG331    HGA3     5  1.0840000e+02  2.9706400e+02  1.8020000e-01  4.5187200e+03
 CG2R61  CG2R61  CG2R61     5  1.2000000e+02  3.3472000e+02  2.4162000e-01  2.9288000e+04
     HT      OT      HT     5  1.0452000e+02  4.6024000e+02  0.0000000e+00  0.0000000e+00
     CA      CA      CA     5  1.2000000e+02  3.3472000e+02  2.4162000e-01  2.9288000e+04
     HP      CA      CA     5  1.2000000e+02  2.5104000e+02  2.1525000e-01  1.8409600e+04

[ dihedraltypes ]
; i	j	k	l	func	phi0	cp	mult
  Cbenz   Cbenz   Cbenz   Cbenz     9  1.800000e+02  1.297040e+01      2
  Cbenz   Cbenz   Cbenz   CG331     9  1.800000e+02  1.297040e+01      2
  Cbenz   Cbenz   Cbenz   HGR61     9  1.800000e+02  1.757280e+01      2
  Cbenz   Cbenz   CG331    HGA3     9  0.000000e+00  8.368000e-03      6
  CG331   Cbenz   Cbenz   CG331     9  1.800000e+02  1.004160e+01      2
  CG331   Cbenz   Cbenz   HGR61     9  1.800000e+02  1.004160e+01      2
   HGA3   CG331   CG331    HGA3     9  0.000000e+00  6.485200e-01      3
  HGR61   Cbenz   Cbenz   HGR61     9  1.800000e+02  1.004160e+01      2
 CG2R61  CG2R61  CG2R61  CG2R61     9  1.800000e+02  1.297040e+01      2
     CA      CA      CA      CA     9  1.800000e+02  1.297040e+01      2
     HP      CA      CA      CA     9  1.800000e+02  1.757280e+01      2
     HP      CA      CA      HP     9  1.800000e+02  1.004160e+01      2
