;;
;; Generated by CHARMM-GUI (http://www.charmm-gui.org) v1.7
;;
;; psf2itp_mol.py
;;
;; Correspondance:
;; jul316@lehigh.edu or wonpil@lehigh.edu
;;
;; CHARMM36 FF in GROMACS format
;;


[ defaults ]
; nbfunc	comb-rule	gen-pairs	fudgeLJ	fudgeQQ
1	2	yes	1.0	1.0

[ atomtypes ]
; name	at.num	mass	charge	ptype	sigma	epsilon	;	sigma_14	epsilon_14
   CG2N1     6    12.0110      0.691     A    3.56359487256e-01    4.602400e-01 
    HGP2     1     1.0080      0.424     A    4.00013524445e-02    1.924640e-01 
   NG2P1     7    14.0070     -0.745     A    3.29632525712e-01    8.368000e-01 

[ bondtypes ]
; i	j	func	b0	Kb
  CG2N1   NG2P1     1  1.365000e-01  3.874384e+05
  NG2P1    HGP2     1  1.000000e-01  3.807440e+05

[ angletypes ]
; i	j	k	func	th0	cth	S0	Kub
  CG2N1   NG2P1   CG2N1     5  1.1831600e+02  3.3103808e+02  0.0000000e+00  0.0000000e+00
  CG2N1   NG2P1    HGP2     5  1.2000000e+02  4.1003200e+02  0.0000000e+00  0.0000000e+00
   HGP2   NG2P1    HGP2     5  1.2000000e+02  2.0920000e+02  0.0000000e+00  0.0000000e+00
  NG2P1   CG2N1   NG2P1     5  1.2000000e+02  4.3513600e+02  2.3642000e-01  7.5312000e+04

[ dihedraltypes ]
; i	j	k	l	func	phi0	cp	mult
  NG2P1   CG2N1   NG2P1   CG2N1     9  0.000000e+00  0.000000e+00      1
  NG2P1   CG2N1   NG2P1   CG2N1     9  0.000000e+00  4.184000e-02      3
  NG2P1   CG2N1   NG2P1   CG2N1     9  1.800000e+02  0.000000e+00      4
  NG2P1   CG2N1   NG2P1   CG2N1     9  1.800000e+02  5.941280e+00      2
  NG2P1   CG2N1   NG2P1    HGP2     9  1.800000e+02  9.414000e+00      2

[ dihedraltypes ]
; i	j	k	l	func	q0	cq
  CG2N1   NG2P1   NG2P1   NG2P1     2  0.000000e+00  3.347200e+02
