;;
;; Generated by CHARMM-GUI (http://www.charmm-gui.org) v1.7
;;
;; psf2itp_mol.py
;;
;; Correspondance:
;; jul316@lehigh.edu or wonpil@lehigh.edu
;;
;; GROMACS topology file for LIG
;;


[ moleculetype ]
; name	nrexcl
LIG	     3

[ atoms ]
; nr	type	resnr	residu	atom	cgnr	charge	mass
     1      CG2N1      1      LIG      C      1      0.691    12.0110   ; qtot  0.691
     2      NG2P1      1      LIG     N1      2     -0.745    14.0070   ; qtot -0.054
     3      NG2P1      1      LIG     N2      3     -0.745    14.0070   ; qtot -0.799
     4      NG2P1      1      LIG     N3      4     -0.745    14.0070   ; qtot -1.544
     5       HGP2      1      LIG     H1      5      0.424     1.0080   ; qtot -1.120
     6       HGP2      1      LIG     H2      6      0.424     1.0080   ; qtot -0.696
     7       HGP2      1      LIG     H3      7      0.424     1.0080   ; qtot -0.272
     8       HGP2      1      LIG     H4      8      0.424     1.0080   ; qtot  0.152
     9       HGP2      1      LIG     H5      9      0.424     1.0080   ; qtot  0.576
    10       HGP2      1      LIG     H6     10      0.424     1.0080   ; qtot  1.000

[ bonds ]
; ai	aj	funct	b0	Kb
    1     2     1
    1     3     1
    1     4     1
    2     5     1
    2     6     1
    3     7     1
    3     8     1
    4     9     1
    4    10     1

[ pairs ]
; ai	aj	funct	c6	c12
    2     7     1 
    2     8     1 
    2     9     1 
    2    10     1 
    3     5     1 
    3     6     1 
    3     9     1 
    3    10     1 
    4     5     1 
    4     6     1 
    4     7     1 
    4     8     1 

[ angles ] 
; ai	aj	ak	funct	th0	cth	S0	Kub
    2     1     3     5
    2     1     4     5
    3     1     4     5
    1     2     5     5
    1     2     6     5
    5     2     6     5
    1     3     7     5
    1     3     8     5
    7     3     8     5
    1     4     9     5
    1     4    10     5
    9     4    10     5

[ dihedrals ]
; ai	aj	ak	al	funct	phi0	cp	mult
    3     1     2     5     9
    3     1     2     6     9
    4     1     2     5     9
    4     1     2     6     9
    2     1     3     7     9
    2     1     3     8     9
    4     1     3     7     9
    4     1     3     8     9
    2     1     4     9     9
    2     1     4    10     9
    3     1     4     9     9
    3     1     4    10     9

[ dihedrals ]
; ai	aj	ak	al	funct	q0	cq
    1     2     3     4     2
